ITEM: TIMESTEP
606
ITEM: NUMBER OF ATOMS
2288
ITEM: BOX BOUNDS pp pp pp
-0.904894 196.004
-0.133 30.8532
0 100
ITEM: ATOMS id type xs ys zs
1 1 0.00176169 0.0384154 0
165 2 0.00872825 0.0256648 0
9 1 0.0139672 0.057525 0
12 1 0.0209783 0.0446648 0
14 1 0.0349478 0.019243 0
166 2 0.0332079 0.0639577 0
13 1 0.0419584 0.00629608 0
173 2 0.0471806 0.0381711 0
45 1 0.0593672 0.0575145 0
50 1 0.0541406 0.0252934 0
49 1 0.066376 0.0453821 0
76 1 0.0681602 5.99767e-05 0
52 1 0.0786255 0.0648146 0
53 1 0.0803541 0.0194533 0
51 1 0.0873811 0.00643196 0
209 1 0.0926708 0.0384154 0
373 2 0.0996373 0.0256648 0
217 1 0.104876 0.057525 0
220 1 0.111887 0.0446648 0
374 2 0.124117 0.0639577 0
222 1 0.125857 0.019243 0
221 1 0.132868 0.00629608 0
381 2 0.13809 0.0381711 0
258 1 0.14505 0.0252934 0
253 1 0.150276 0.0575145 0
257 1 0.157285 0.0453821 0
284 1 0.159069 5.99767e-05 0
260 1 0.169535 0.0648146 0
261 1 0.171263 0.0194533 0
259 1 0.17829 0.00643196 0
417 1 0.18358 0.0384154 0
581 2 0.190546 0.0256648 0
425 1 0.195785 0.057525 0
428 1 0.202796 0.0446648 0
430 1 0.216766 0.019243 0
582 2 0.215026 0.0639577 0
429 1 0.223777 0.00629608 0
589 2 0.228999 0.0381711 0
466 1 0.235959 0.0252934 0
461 1 0.241185 0.0575145 0
465 1 0.248194 0.0453821 0
492 1 0.249978 5.99767e-05 0
468 1 0.260444 0.0648146 0
469 1 0.262172 0.0194533 0
467 1 0.269199 0.00643196 0
625 1 0.274489 0.0384154 0
633 1 0.286694 0.057525 0
789 2 0.281456 0.0256648 0
636 1 0.293706 0.0446648 0
638 1 0.307675 0.019243 0
790 2 0.305935 0.0639577 0
637 1 0.314686 0.00629608 0
797 2 0.319908 0.0381711 0
674 1 0.326868 0.0252934 0
669 1 0.332094 0.0575145 0
673 1 0.339103 0.0453821 0
700 1 0.340887 5.99767e-05 0
676 1 0.351353 0.0648146 0
677 1 0.353081 0.0194533 0
675 1 0.360108 0.00643196 0
833 1 0.365398 0.0384154 0
997 2 0.372365 0.0256648 0
841 1 0.377604 0.057525 0
844 1 0.384615 0.0446648 0
846 1 0.398584 0.019243 0
998 2 0.396844 0.0639577 0
845 1 0.405595 0.00629608 0
1005 2 0.410817 0.0381711 0
877 1 0.423004 0.0575145 0
882 1 0.417777 0.0252934 0
881 1 0.430012 0.0453821 0
908 1 0.431797 5.99767e-05 0
884 1 0.442262 0.0648146 0
885 1 0.44399 0.0194533 0
883 1 0.451017 0.00643196 0
1041 1 0.456307 0.0384154 0
1205 2 0.463274 0.0256648 0
1049 1 0.468513 0.057525 0
1052 1 0.475524 0.0446648 0
1206 2 0.487753 0.0639577 0
1054 1 0.489493 0.019243 0
1053 1 0.496504 0.00629608 0
37 1 3.10978e-05 0.0833929 0
161 2 0.00526437 0.115265 0
5 1 0.0122269 0.102537 0
3 1 0.0245004 0.1218 0
4 1 0.0262448 0.0767731 0
7 1 0.0384355 0.0958494 0
39 1 0.0507049 0.11499 0
74 1 0.045441 0.0828967 0
176 2 0.0576505 0.102005 0
44 1 0.0629446 0.133281 0
157 2 0.0699701 0.120437 0
175 2 0.0716222 0.0775593 0
42 1 0.0839471 0.0962952 0
245 1 0.0909402 0.0833929 0
213 1 0.103136 0.102537 0
369 2 0.0961735 0.115265 0
211 1 0.115409 0.1218 0
212 1 0.117154 0.0767731 0
215 1 0.129345 0.0958494 0
282 1 0.13635 0.0828967 0
247 1 0.141614 0.11499 0
384 2 0.14856 0.102005 0
252 1 0.153854 0.133281 0
365 2 0.160879 0.120437 0
383 2 0.162531 0.0775593 0
250 1 0.174856 0.0962952 0
453 1 0.181849 0.0833929 0
577 2 0.187083 0.115265 0
421 1 0.194045 0.102537 0
419 1 0.206319 0.1218 0
420 1 0.208063 0.0767731 0
423 1 0.220254 0.0958494 0
490 1 0.227259 0.0828967 0
455 1 0.232523 0.11499 0
592 2 0.239469 0.102005 0
460 1 0.244763 0.133281 0
573 2 0.251788 0.120437 0
591 2 0.25344 0.0775593 0
458 1 0.265765 0.0962952 0
661 1 0.272758 0.0833929 0
785 2 0.277992 0.115265 0
629 1 0.284954 0.102537 0
627 1 0.297228 0.1218 0
628 1 0.298972 0.0767731 0
631 1 0.311163 0.0958494 0
698 1 0.318168 0.0828967 0
663 1 0.323432 0.11499 0
800 2 0.330378 0.102005 0
668 1 0.335672 0.133281 0
781 2 0.342697 0.120437 0
799 2 0.344349 0.0775593 0
666 1 0.356674 0.0962952 0
869 1 0.363667 0.0833929 0
993 2 0.368901 0.115265 0
837 1 0.375863 0.102537 0
835 1 0.388137 0.1218 0
836 1 0.389881 0.0767731 0
839 1 0.402072 0.0958494 0
871 1 0.414341 0.11499 0
906 1 0.409077 0.0828967 0
1008 2 0.421287 0.102005 0
876 1 0.426581 0.133281 0
989 2 0.433606 0.120437 0
1007 2 0.435259 0.0775593 0
874 1 0.447583 0.0962952 0
1077 1 0.454577 0.0833929 0
1045 1 0.466772 0.102537 0
1201 2 0.45981 0.115265 0
1043 1 0.479046 0.1218 0
1044 1 0.48079 0.0767731 0
1047 1 0.492981 0.0958494 0
1114 1 0.499986 0.0828967 0
10 1 0.00352853 0.159957 0
33 1 0.00878619 0.192114 0
8 1 0.0174891 0.134669 0
163 2 0.0157519 0.179383 0
6 1 0.0279918 0.198441 0
162 2 0.0297295 0.153713 0
2 1 0.0366937 0.14089 0
11 1 0.0419633 0.173002 0
46 1 0.0489731 0.160018 0
43 1 0.0612029 0.178629 0
183 2 0.0542278 0.191771 0
174 2 0.0822186 0.140726 0
41 1 0.0734597 0.197931 0
40 1 0.0752404 0.152652 0
47 1 0.0874234 0.172707 0
218 1 0.0944376 0.159957 0
241 1 0.0996953 0.192114 0
216 1 0.108398 0.134669 0
371 2 0.106661 0.179383 0
214 1 0.118901 0.198441 0
370 2 0.120639 0.153713 0
210 1 0.127603 0.14089 0
219 1 0.132872 0.173002 0
254 1 0.139882 0.160018 0
391 2 0.145137 0.191771 0
251 1 0.152112 0.178629 0
248 1 0.166149 0.152652 0
249 1 0.164369 0.197931 0
382 2 0.173128 0.140726 0
255 1 0.178332 0.172707 0
426 1 0.185347 0.159957 0
449 1 0.190604 0.192114 0
579 2 0.19757 0.179383 0
424 1 0.199307 0.134669 0
418 1 0.218512 0.14089 0
422 1 0.20981 0.198441 0
578 2 0.211548 0.153713 0
427 1 0.223781 0.173002 0
462 1 0.230791 0.160018 0
599 2 0.236046 0.191771 0
459 1 0.243021 0.178629 0
457 1 0.255278 0.197931 0
456 1 0.257059 0.152652 0
590 2 0.264037 0.140726 0
463 1 0.269242 0.172707 0
634 1 0.276256 0.159957 0
632 1 0.290216 0.134669 0
657 1 0.281513 0.192114 0
787 2 0.288479 0.179383 0
630 1 0.300719 0.198441 0
626 1 0.309421 0.14089 0
786 2 0.302457 0.153713 0
635 1 0.314691 0.173002 0
670 1 0.3217 0.160018 0
807 2 0.326955 0.191771 0
667 1 0.33393 0.178629 0
664 1 0.347968 0.152652 0
665 1 0.346187 0.197931 0
798 2 0.354946 0.140726 0
671 1 0.360151 0.172707 0
842 1 0.367165 0.159957 0
865 1 0.372423 0.192114 0
840 1 0.381126 0.134669 0
995 2 0.379388 0.179383 0
838 1 0.391628 0.198441 0
994 2 0.393366 0.153713 0
834 1 0.40033 0.14089 0
843 1 0.4056 0.173002 0
878 1 0.412609 0.160018 0
875 1 0.424839 0.178629 0
1015 2 0.417864 0.191771 0
873 1 0.437096 0.197931 0
1006 2 0.445855 0.140726 0
872 1 0.438877 0.152652 0
879 1 0.45106 0.172707 0
1050 1 0.458074 0.159957 0
1073 1 0.463332 0.192114 0
1048 1 0.472035 0.134669 0
1203 2 0.470297 0.179383 0
1046 1 0.482537 0.198441 0
1202 2 0.484275 0.153713 0
1042 1 0.491239 0.14089 0
1051 1 0.496509 0.173002 0
34 1 0.0070243 0.237098 0
38 1 3.88494e-06 0.249847 0
30 1 0.0192239 0.256337 0
35 1 0.0209773 0.211315 0
29 1 0.0332586 0.230572 0
164 2 0.0402244 0.217736 0
75 1 0.0454585 0.249626 0
70 1 0.0524752 0.236587 0
71 1 0.0664491 0.210914 0
182 2 0.0646984 0.255778 0
181 2 0.0786722 0.230217 0
48 1 0.0856584 0.217637 0
246 1 0.090913 0.249847 0
242 1 0.0979334 0.237098 0
243 1 0.111886 0.211315 0
238 1 0.110133 0.256337 0
237 1 0.124168 0.230572 0
372 2 0.131134 0.217736 0
283 1 0.136368 0.249626 0
278 1 0.143384 0.236587 0
390 2 0.155608 0.255778 0
279 1 0.157358 0.210914 0
389 2 0.169581 0.230217 0
256 1 0.176568 0.217637 0
454 1 0.181822 0.249847 0
450 1 0.188842 0.237098 0
451 1 0.202796 0.211315 0
446 1 0.201042 0.256337 0
445 1 0.215077 0.230572 0
580 2 0.222043 0.217736 0
491 1 0.227277 0.249626 0
486 1 0.234293 0.236587 0
487 1 0.248267 0.210914 0
598 2 0.246517 0.255778 0
597 2 0.26049 0.230217 0
464 1 0.267477 0.217637 0
662 1 0.272731 0.249847 0
658 1 0.279752 0.237098 0
659 1 0.293705 0.211315 0
654 1 0.291951 0.256337 0
653 1 0.305986 0.230572 0
699 1 0.318186 0.249626 0
788 2 0.312952 0.217736 0
694 1 0.325202 0.236587 0
695 1 0.339176 0.210914 0
806 2 0.337426 0.255778 0
805 2 0.3514 0.230217 0
672 1 0.358386 0.217637 0
870 1 0.36364 0.249847 0
866 1 0.370661 0.237098 0
867 1 0.384614 0.211315 0
862 1 0.38286 0.256337 0
861 1 0.396895 0.230572 0
996 2 0.403861 0.217736 0
907 1 0.409095 0.249626 0
902 1 0.416112 0.236587 0
903 1 0.430085 0.210914 0
1014 2 0.428335 0.255778 0
1013 2 0.442309 0.230217 0
880 1 0.449295 0.217637 0
1078 1 0.454549 0.249847 0
1074 1 0.46157 0.237098 0
1075 1 0.475523 0.211315 0
1070 1 0.473769 0.256337 0
1069 1 0.487804 0.230572 0
1204 2 0.49477 0.217736 0
19 1 0.00348034 0.326821 0
171 2 0.0122458 0.269191 0
36 1 0.0104919 0.314016 0
31 1 0.0244891 0.288492 0
32 1 0.031505 0.275602 0
170 2 0.0367329 0.307639 0
27 1 0.0437021 0.294723 0
61 1 0.0489642 0.326901 0
72 1 0.0577346 0.268778 0
73 1 0.0559776 0.313888 0
67 1 0.0699026 0.28792 0
77 1 0.0681524 0.333034 0
68 1 0.0769152 0.275072 0
69 1 0.0821638 0.307385 0
155 1 0.0891573 0.294696 0
379 2 0.103155 0.269191 0
227 1 0.0943894 0.326821 0
244 1 0.101401 0.314016 0
240 1 0.122414 0.275602 0
239 1 0.115398 0.288492 0
378 2 0.127642 0.307639 0
235 1 0.134611 0.294723 0
269 1 0.139873 0.326901 0
280 1 0.148644 0.268778 0
281 1 0.146887 0.313888 0
285 1 0.159062 0.333034 0
275 1 0.160812 0.28792 0
276 1 0.167824 0.275072 0
277 1 0.173073 0.307385 0
363 1 0.180066 0.294696 0
435 1 0.185299 0.326821 0
587 2 0.194064 0.269191 0
452 1 0.19231 0.314016 0
447 1 0.206307 0.288492 0
448 1 0.213323 0.275602 0
586 2 0.218551 0.307639 0
443 1 0.22552 0.294723 0
488 1 0.239553 0.268778 0
477 1 0.230782 0.326901 0
489 1 0.237796 0.313888 0
493 1 0.249971 0.333034 0
484 1 0.258733 0.275072 0
483 1 0.251721 0.28792 0
485 1 0.263982 0.307385 0
571 1 0.270975 0.294696 0
643 1 0.276208 0.326821 0
795 2 0.284973 0.269191 0
660 1 0.283219 0.314016 0
655 1 0.297216 0.288492 0
656 1 0.304232 0.275602 0
794 2 0.30946 0.307639 0
651 1 0.316429 0.294723 0
685 1 0.321692 0.326901 0
696 1 0.330462 0.268778 0
697 1 0.328705 0.313888 0
691 1 0.34263 0.28792 0
701 1 0.34088 0.333034 0
692 1 0.349642 0.275072 0
693 1 0.354891 0.307385 0
779 1 0.361885 0.294696 0
851 1 0.367117 0.326821 0
868 1 0.374128 0.314016 0
1003 2 0.375882 0.269191 0
864 1 0.395141 0.275602 0
863 1 0.388125 0.288492 0
1002 2 0.400369 0.307639 0
859 1 0.407338 0.294723 0
893 1 0.412601 0.326901 0
904 1 0.421371 0.268778 0
905 1 0.419614 0.313888 0
899 1 0.433539 0.28792 0
909 1 0.431789 0.333034 0
900 1 0.440552 0.275072 0
901 1 0.4458 0.307385 0
987 1 0.452794 0.294696 0
1059 1 0.458026 0.326821 0
1211 2 0.466791 0.269191 0
1076 1 0.465037 0.314016 0
1071 1 0.479035 0.288492 0
1072 1 0.48605 0.275602 0
1067 1 0.498248 0.294723 0
1210 2 0.491278 0.307639 0
20 1 0.00172298 0.371848 0
22 1 0.0157417 0.346188 0
23 1 0.0139842 0.391204 0
154 1 0.0227428 0.333409 0
17 1 0.028 0.365459 0
28 1 0.035008 0.3525 0
24 1 0.0402668 0.384667 0
177 2 0.047227 0.371713 0
178 2 0.0611911 0.345927 0
63 1 0.059455 0.390725 0
66 1 0.0804157 0.352453 0
57 1 0.073406 0.365298 0
179 2 0.0856523 0.384475 0
228 1 0.0926321 0.371848 0
230 1 0.106651 0.346188 0
362 1 0.113652 0.333409 0
231 1 0.104893 0.391204 0
225 1 0.118909 0.365459 0
236 1 0.125917 0.3525 0
232 1 0.131176 0.384667 0
385 2 0.138136 0.371713 0
386 2 0.1521 0.345927 0
271 1 0.150364 0.390725 0
265 1 0.164315 0.365298 0
274 1 0.171325 0.352453 0
387 2 0.176561 0.384475 0
436 1 0.183541 0.371848 0
438 1 0.19756 0.346188 0
439 1 0.195802 0.391204 0
570 1 0.204561 0.333409 0
444 1 0.216826 0.3525 0
433 1 0.209818 0.365459 0
440 1 0.222085 0.384667 0
593 2 0.229045 0.371713 0
594 2 0.243009 0.345927 0
479 1 0.241273 0.390725 0
473 1 0.255224 0.365298 0
482 1 0.262234 0.352453 0
595 2 0.26747 0.384475 0
644 1 0.27445 0.371848 0
646 1 0.288469 0.346188 0
647 1 0.286711 0.391204 0
778 1 0.29547 0.333409 0
641 1 0.300727 0.365459 0
652 1 0.307735 0.3525 0
648 1 0.312994 0.384667 0
801 2 0.319954 0.371713 0
687 1 0.332182 0.390725 0
802 2 0.333918 0.345927 0
690 1 0.353143 0.352453 0
681 1 0.346133 0.365298 0
803 2 0.35838 0.384475 0
852 1 0.365359 0.371848 0
854 1 0.379378 0.346188 0
855 1 0.377621 0.391204 0
986 1 0.386379 0.333409 0
849 1 0.391636 0.365459 0
860 1 0.398644 0.3525 0
856 1 0.403903 0.384667 0
1009 2 0.410863 0.371713 0
1010 2 0.424827 0.345927 0
895 1 0.423091 0.390725 0
889 1 0.437042 0.365298 0
898 1 0.444052 0.352453 0
1011 2 0.449289 0.384475 0
1060 1 0.456268 0.371848 0
1063 1 0.46853 0.391204 0
1062 1 0.470287 0.346188 0
1194 1 0.477288 0.333409 0
1068 1 0.489553 0.3525 0
1057 1 0.482545 0.365459 0
1064 1 0.494812 0.384667 0
18 1 0.00697293 0.404059 0
168 2 0.00524345 0.448873 0
153 1 0.0192379 0.423284 0
25 1 0.0262442 0.410505 0
21 1 0.0314989 0.442696 0
26 1 0.0385128 0.429765 0
60 1 0.0506942 0.448818 0
167 2 0.0437324 0.461759 0
59 1 0.0524444 0.403718 0
58 1 0.0647131 0.422919 0
180 2 0.0716773 0.410077 0
62 1 0.0769028 0.442066 0
65 1 0.0839214 0.429266 0
55 1 0.089179 0.461551 0
226 1 0.097882 0.404059 0
376 2 0.0961525 0.448873 0
361 1 0.110147 0.423284 0
233 1 0.117153 0.410505 0
229 1 0.122408 0.442696 0
234 1 0.129422 0.429765 0
375 2 0.134642 0.461759 0
267 1 0.143354 0.403718 0
268 1 0.141603 0.448818 0
266 1 0.155622 0.422919 0
388 2 0.162586 0.410077 0
270 1 0.167812 0.442066 0
273 1 0.174831 0.429266 0
263 1 0.180088 0.461551 0
584 2 0.187062 0.448873 0
434 1 0.188791 0.404059 0
569 1 0.201056 0.423284 0
441 1 0.208062 0.410505 0
437 1 0.213317 0.442696 0
442 1 0.220331 0.429765 0
583 2 0.225551 0.461759 0
475 1 0.234263 0.403718 0
476 1 0.232512 0.448818 0
474 1 0.246531 0.422919 0
596 2 0.253496 0.410077 0
478 1 0.258721 0.442066 0
481 1 0.26574 0.429266 0
642 1 0.2797 0.404059 0
471 1 0.270997 0.461551 0
792 2 0.277971 0.448873 0
777 1 0.291965 0.423284 0
649 1 0.298972 0.410505 0
645 1 0.304226 0.442696 0
650 1 0.31124 0.429765 0
791 2 0.31646 0.461759 0
683 1 0.325172 0.403718 0
684 1 0.323421 0.448818 0
682 1 0.33744 0.422919 0
804 2 0.344405 0.410077 0
686 1 0.34963 0.442066 0
689 1 0.356649 0.429266 0
679 1 0.361906 0.461551 0
850 1 0.370609 0.404059 0
1000 2 0.36888 0.448873 0
985 1 0.382874 0.423284 0
857 1 0.389881 0.410505 0
853 1 0.395135 0.442696 0
858 1 0.402149 0.429765 0
891 1 0.416081 0.403718 0
892 1 0.414331 0.448818 0
999 2 0.407369 0.461759 0
890 1 0.428349 0.422919 0
1012 2 0.435314 0.410077 0
894 1 0.440539 0.442066 0
897 1 0.447558 0.429266 0
887 1 0.452815 0.461551 0
1058 1 0.461518 0.404059 0
1208 2 0.459789 0.448873 0
1193 1 0.473783 0.423284 0
1065 1 0.48079 0.410505 0
1061 1 0.486044 0.442696 0
1066 1 0.493058 0.429765 0
1207 2 0.498278 0.461759 0
90 1 0.00868074 0.526088 0
15 1 0.0104557 0.48104 0
16 1 0.0174804 0.468205 0
169 2 0.0297311 0.487499 0
116 1 0.0227464 0.50037 0
93 1 0.0349702 0.519462 0
91 1 0.0419916 0.506562 0
54 1 0.0559557 0.480994 0
199 2 0.0542271 0.525804 0
56 1 0.062964 0.467987 0
207 2 0.0681884 0.499918 0
64 1 0.0751515 0.487102 0
130 1 0.0804037 0.519319 0
129 1 0.0874169 0.506606 0
223 1 0.101365 0.48104 0
298 1 0.0995898 0.526088 0
224 1 0.108389 0.468205 0
324 1 0.113655 0.50037 0
377 2 0.12064 0.487499 0
301 1 0.125879 0.519462 0
299 1 0.132901 0.506562 0
407 2 0.145136 0.525804 0
262 1 0.146865 0.480994 0
264 1 0.153873 0.467987 0
272 1 0.166061 0.487102 0
415 2 0.159097 0.499918 0
338 1 0.171313 0.519319 0
337 1 0.178326 0.506606 0
431 1 0.192274 0.48104 0
506 1 0.190499 0.526088 0
432 1 0.199299 0.468205 0
532 1 0.204565 0.50037 0
585 2 0.211549 0.487499 0
509 1 0.216788 0.519462 0
507 1 0.22381 0.506562 0
470 1 0.237774 0.480994 0
615 2 0.236045 0.525804 0
472 1 0.244782 0.467987 0
480 1 0.25697 0.487102 0
623 2 0.250007 0.499918 0
546 1 0.262222 0.519319 0
545 1 0.269235 0.506606 0
639 1 0.283183 0.48104 0
640 1 0.290208 0.468205 0
714 1 0.281408 0.526088 0
740 1 0.295474 0.50037 0
793 2 0.302458 0.487499 0
717 1 0.307697 0.519462 0
715 1 0.314719 0.506562 0
678 1 0.328683 0.480994 0
823 2 0.326954 0.525804 0
680 1 0.335691 0.467987 0
831 2 0.340916 0.499918 0
688 1 0.347879 0.487102 0
754 1 0.353131 0.519319 0
753 1 0.360144 0.506606 0
847 1 0.374092 0.48104 0
922 1 0.372317 0.526088 0
848 1 0.381117 0.468205 0
1001 2 0.393367 0.487499 0
948 1 0.386383 0.50037 0
925 1 0.398607 0.519462 0
923 1 0.405628 0.506562 0
886 1 0.419592 0.480994 0
888 1 0.4266 0.467987 0
1031 2 0.417863 0.525804 0
1039 2 0.431825 0.499918 0
896 1 0.438788 0.487102 0
962 1 0.44404 0.519319 0
961 1 0.451053 0.506606 0
1055 1 0.465001 0.48104 0
1130 1 0.463226 0.526088 0
1056 1 0.472026 0.468205 0
1156 1 0.477292 0.50037 0
1209 2 0.484277 0.487499 0
1133 1 0.489516 0.519462 0
1131 1 0.496537 0.506562 0
184 2 0.00169719 0.538854 0
85 1 0.0139501 0.558264 0
89 1 0.020983 0.545415 0
186 2 0.0262348 0.577257 0
92 1 0.0332219 0.564567 0
82 1 0.0385068 0.596745 0
118 1 0.0472644 0.538747 0
151 1 0.0455373 0.583908 0
125 1 0.0594636 0.557705 0
128 1 0.0664628 0.544679 0
120 1 0.0717309 0.576662 0
200 2 0.0786479 0.563962 0
392 2 0.0926063 0.538854 0
123 1 0.0837504 0.596501 0
322 1 0.0908131 0.583682 0
293 1 0.104859 0.558264 0
297 1 0.111892 0.545415 0
300 1 0.124131 0.564567 0
394 2 0.117144 0.577257 0
290 1 0.129416 0.596745 0
326 1 0.138174 0.538747 0
359 1 0.136446 0.583908 0
333 1 0.150373 0.557705 0
336 1 0.157372 0.544679 0
328 1 0.16264 0.576662 0
408 2 0.169557 0.563962 0
331 1 0.174659 0.596501 0
600 2 0.183515 0.538854 0
530 1 0.181722 0.583682 0
501 1 0.195768 0.558264 0
505 1 0.202801 0.545415 0
602 2 0.208053 0.577257 0
508 1 0.21504 0.564567 0
534 1 0.229083 0.538747 0
498 1 0.220325 0.596745 0
567 1 0.227355 0.583908 0
541 1 0.241282 0.557705 0
544 1 0.248281 0.544679 0
536 1 0.253549 0.576662 0
616 2 0.260466 0.563962 0
539 1 0.265569 0.596501 0
808 2 0.274424 0.538854 0
738 1 0.272631 0.583682 0
709 1 0.286677 0.558264 0
713 1 0.29371 0.545415 0
810 2 0.298962 0.577257 0
716 1 0.305949 0.564567 0
706 1 0.311234 0.596745 0
742 1 0.319992 0.538747 0
775 1 0.318265 0.583908 0
749 1 0.332191 0.557705 0
752 1 0.33919 0.544679 0
824 2 0.351375 0.563962 0
744 1 0.344458 0.576662 0
747 1 0.356478 0.596501 0
946 1 0.36354 0.583682 0
1016 2 0.365334 0.538854 0
917 1 0.377586 0.558264 0
921 1 0.384619 0.545415 0
1018 2 0.389871 0.577257 0
924 1 0.396858 0.564567 0
914 1 0.402143 0.596745 0
950 1 0.410901 0.538747 0
983 1 0.409174 0.583908 0
957 1 0.4231 0.557705 0
960 1 0.430099 0.544679 0
952 1 0.435367 0.576662 0
1032 2 0.442284 0.563962 0
955 1 0.447387 0.596501 0
1224 2 0.456243 0.538854 0
1154 1 0.454449 0.583682 0
1125 1 0.468496 0.558264 0
1129 1 0.475528 0.545415 0
1132 1 0.487767 0.564567 0
1226 2 0.48078 0.577257 0
1122 1 0.493052 0.596745 0
78 1 0.00517851 0.615781 0
86 1 0.00339301 0.660801 0
84 1 0.01744 0.634768 0
187 2 0.0121743 0.602987 0
80 1 0.0244784 0.621953 0
79 1 0.0297664 0.654041 0
185 2 0.0367779 0.641545 0
195 2 0.0507968 0.615876 0
126 1 0.049094 0.660809 0
121 1 0.0577657 0.602852 0
124 1 0.0630794 0.634848 0
119 1 0.0701222 0.621703 0
158 2 0.0819848 0.641627 0
196 2 0.0753622 0.65396 0
286 1 0.0960876 0.615781 0
395 2 0.103083 0.602987 0
294 1 0.0943021 0.660801 0
292 1 0.108349 0.634768 0
288 1 0.115387 0.621953 0
287 1 0.120676 0.654041 0
393 2 0.127687 0.641545 0
403 2 0.141706 0.615876 0
334 1 0.140003 0.660809 0
329 1 0.148675 0.602852 0
332 1 0.153988 0.634848 0
327 1 0.161031 0.621703 0
404 2 0.166271 0.65396 0
366 2 0.172894 0.641627 0
494 1 0.186997 0.615781 0
502 1 0.185211 0.660801 0
603 2 0.193992 0.602987 0
500 1 0.199258 0.634768 0
496 1 0.206297 0.621953 0
601 2 0.218596 0.641545 0
495 1 0.211585 0.654041 0
611 2 0.232615 0.615876 0
542 1 0.230912 0.660809 0
537 1 0.239584 0.602852 0
540 1 0.244898 0.634848 0
535 1 0.25194 0.621703 0
612 2 0.25718 0.65396 0
574 2 0.263803 0.641627 0
702 1 0.277906 0.615781 0
710 1 0.27612 0.660801 0
811 2 0.284902 0.602987 0
708 1 0.290167 0.634768 0
704 1 0.297206 0.621953 0
809 2 0.309505 0.641545 0
703 1 0.302494 0.654041 0
750 1 0.321821 0.660809 0
819 2 0.323524 0.615876 0
745 1 0.330493 0.602852 0
748 1 0.335807 0.634848 0
743 1 0.342849 0.621703 0
820 2 0.348089 0.65396 0
782 2 0.354712 0.641627 0
910 1 0.368815 0.615781 0
918 1 0.367029 0.660801 0
916 1 0.381076 0.634768 0
1019 2 0.375811 0.602987 0
912 1 0.388115 0.621953 0
911 1 0.393403 0.654041 0
1017 2 0.400414 0.641545 0
1027 2 0.414433 0.615876 0
958 1 0.41273 0.660809 0
953 1 0.421402 0.602852 0
956 1 0.426716 0.634848 0
951 1 0.433759 0.621703 0
990 2 0.445621 0.641627 0
1028 2 0.438999 0.65396 0
1126 1 0.457938 0.660801 0
1118 1 0.459724 0.615781 0
1227 2 0.46672 0.602987 0
1124 1 0.471985 0.634768 0
1120 1 0.479024 0.621953 0
1119 1 0.484312 0.654041 0
1225 2 0.491323 0.641545 0
194 2 0.00868252 0.692548 0
83 1 0.0156724 0.679784 0
111 1 0.0209643 0.711826 0
81 1 0.0280007 0.699025 0
88 1 0.0403057 0.718458 0
156 1 0.0332693 0.731037 0
87 1 0.0420587 0.673459 0
148 1 0.0544198 0.693061 0
197 2 0.0613516 0.679623 0
149 1 0.0665404 0.71157 0
122 1 0.073585 0.698957 0
145 1 0.0786892 0.73171 0
127 1 0.0872441 0.673932 0
198 2 0.0856179 0.718749 0
402 2 0.0995916 0.692548 0
291 1 0.106581 0.679784 0
319 1 0.111873 0.711826 0
289 1 0.11891 0.699025 0
364 1 0.124178 0.731037 0
295 1 0.132968 0.673459 0
296 1 0.131215 0.718458 0
356 1 0.145329 0.693061 0
405 2 0.152261 0.679623 0
357 1 0.157449 0.71157 0
330 1 0.164494 0.698957 0
353 1 0.169598 0.73171 0
406 2 0.176527 0.718749 0
335 1 0.178153 0.673932 0
610 2 0.190501 0.692548 0
499 1 0.197491 0.679784 0
527 1 0.202782 0.711826 0
497 1 0.209819 0.699025 0
572 1 0.215087 0.731037 0
503 1 0.223877 0.673459 0
504 1 0.222124 0.718458 0
564 1 0.236238 0.693061 0
613 2 0.24317 0.679623 0
565 1 0.248359 0.71157 0
538 1 0.255403 0.698957 0
543 1 0.269062 0.673932 0
561 1 0.260507 0.73171 0
614 2 0.267436 0.718749 0
818 2 0.28141 0.692548 0
707 1 0.2884 0.679784 0
735 1 0.293692 0.711826 0
705 1 0.300728 0.699025 0
780 1 0.305997 0.731037 0
711 1 0.314786 0.673459 0
712 1 0.313033 0.718458 0
772 1 0.327147 0.693061 0
773 1 0.339268 0.71157 0
821 2 0.334079 0.679623 0
746 1 0.346312 0.698957 0
769 1 0.351416 0.73171 0
751 1 0.359971 0.673932 0
822 2 0.358345 0.718749 0
1026 2 0.372319 0.692548 0
915 1 0.379309 0.679784 0
943 1 0.384601 0.711826 0
913 1 0.391637 0.699025 0
919 1 0.405695 0.673459 0
920 1 0.403942 0.718458 0
988 1 0.396906 0.731037 0
980 1 0.418056 0.693061 0
1029 2 0.424988 0.679623 0
981 1 0.430177 0.71157 0
954 1 0.437221 0.698957 0
977 1 0.442326 0.73171 0
959 1 0.45088 0.673932 0
1030 2 0.449254 0.718749 0
1234 2 0.463228 0.692548 0
1123 1 0.470218 0.679784 0
1151 1 0.47551 0.711826 0
1121 1 0.482546 0.699025 0
1196 1 0.487815 0.731037 0
1127 1 0.496604 0.673459 0
1128 1 0.494851 0.718458 0
110 1 0.00697083 0.737318 0
112 1 0.012248 0.769381 0
193 2 0.0192205 0.756595 0
107 1 0.0244467 0.788581 0
108 1 0.0314637 0.775802 0
152 1 0.0455876 0.750857 0
192 2 0.0436646 0.795156 0
160 2 0.0526312 0.738165 0
206 2 0.057527 0.768215 0
146 1 0.0645629 0.756363 0
159 2 0.0698056 0.789092 0
147 1 0.0768687 0.776781 0
323 1 0.0908765 0.750323 0
143 1 0.0891243 0.795279 0
318 1 0.0978799 0.737318 0
320 1 0.103157 0.769381 0
401 2 0.11013 0.756595 0
316 1 0.122373 0.775802 0
315 1 0.115356 0.788581 0
400 2 0.134574 0.795156 0
360 1 0.136497 0.750857 0
368 2 0.14354 0.738165 0
414 2 0.148436 0.768215 0
354 1 0.155472 0.756363 0
367 2 0.160715 0.789092 0
355 1 0.167778 0.776781 0
531 1 0.181786 0.750323 0
351 1 0.180033 0.795279 0
526 1 0.188789 0.737318 0
528 1 0.194066 0.769381 0
609 2 0.201039 0.756595 0
523 1 0.206265 0.788581 0
524 1 0.213282 0.775802 0
568 1 0.227406 0.750857 0
608 2 0.225483 0.795156 0
576 2 0.234449 0.738165 0
622 2 0.239345 0.768215 0
562 1 0.246381 0.756363 0
563 1 0.258687 0.776781 0
575 2 0.251624 0.789092 0
739 1 0.272695 0.750323 0
734 1 0.279698 0.737318 0
559 1 0.270942 0.795279 0
736 1 0.284975 0.769381 0
817 2 0.291948 0.756595 0
731 1 0.297174 0.788581 0
732 1 0.304191 0.775802 0
776 1 0.318315 0.750857 0
816 2 0.316392 0.795156 0
784 2 0.325358 0.738165 0
830 2 0.330254 0.768215 0
770 1 0.33729 0.756363 0
783 2 0.342533 0.789092 0
771 1 0.349596 0.776781 0
947 1 0.363604 0.750323 0
767 1 0.361852 0.795279 0
942 1 0.370607 0.737318 0
944 1 0.375884 0.769381 0
1025 2 0.382857 0.756595 0
940 1 0.3951 0.775802 0
939 1 0.388083 0.788581 0
984 1 0.409224 0.750857 0
992 2 0.416268 0.738165 0
1024 2 0.407301 0.795156 0
1038 2 0.421163 0.768215 0
978 1 0.428199 0.756363 0
991 2 0.433442 0.789092 0
979 1 0.440505 0.776781 0
1155 1 0.454513 0.750323 0
975 1 0.452761 0.795279 0
1150 1 0.461516 0.737318 0
1152 1 0.466793 0.769381 0
1233 2 0.473766 0.756595 0
1147 1 0.478992 0.788581 0
1148 1 0.486009 0.775802 0
1232 2 0.49821 0.795156 0
101 1 0.00348081 0.82734 0
113 1 0.0104916 0.814417 0
189 2 0.0157158 0.846326 0
117 1 0.022681 0.833563 0
97 1 0.0279397 0.86569 0
106 1 0.0349482 0.85285 0
109 1 0.036705 0.807918 0
135 1 0.0488554 0.826793 0
138 1 0.0611372 0.844621 0
150 1 0.0557769 0.812984 0
208 2 0.0681593 0.832073 0
144 1 0.080435 0.852496 0
205 2 0.0821632 0.808092 0
133 1 0.0734099 0.864374 0
309 1 0.0943899 0.82734 0
321 1 0.101401 0.814417 0
325 1 0.11359 0.833563 0
397 2 0.106625 0.846326 0
305 1 0.118849 0.86569 0
314 1 0.125857 0.85285 0
317 1 0.127614 0.807918 0
343 1 0.139765 0.826793 0
358 1 0.146686 0.812984 0
346 1 0.152046 0.844621 0
416 2 0.159068 0.832073 0
341 1 0.164319 0.864374 0
352 1 0.171344 0.852496 0
413 2 0.173072 0.808092 0
517 1 0.185299 0.82734 0
529 1 0.19231 0.814417 0
605 2 0.197534 0.846326 0
533 1 0.204499 0.833563 0
522 1 0.216766 0.85285 0
525 1 0.218523 0.807918 0
513 1 0.209758 0.86569 0
551 1 0.230674 0.826793 0
566 1 0.237595 0.812984 0
554 1 0.242955 0.844621 0
624 2 0.249977 0.832073 0
549 1 0.255228 0.864374 0
560 1 0.262253 0.852496 0
621 2 0.263981 0.808092 0
725 1 0.276208 0.82734 0
737 1 0.283219 0.814417 0
813 2 0.288443 0.846326 0
741 1 0.295408 0.833563 0
721 1 0.300667 0.86569 0
730 1 0.307676 0.85285 0
733 1 0.309432 0.807918 0
759 1 0.321583 0.826793 0
774 1 0.328504 0.812984 0
762 1 0.333864 0.844621 0
832 2 0.340887 0.832073 0
768 1 0.353162 0.852496 0
757 1 0.346137 0.864374 0
829 2 0.35489 0.808092 0
933 1 0.367117 0.82734 0
945 1 0.374128 0.814417 0
1021 2 0.379352 0.846326 0
949 1 0.386317 0.833563 0
929 1 0.391576 0.86569 0
938 1 0.398585 0.85285 0
941 1 0.400341 0.807918 0
967 1 0.412492 0.826793 0
970 1 0.424774 0.844621 0
982 1 0.419413 0.812984 0
1040 2 0.431796 0.832073 0
965 1 0.437046 0.864374 0
976 1 0.444071 0.852496 0
1037 2 0.4458 0.808092 0
1141 1 0.458026 0.82734 0
1153 1 0.465037 0.814417 0
1157 1 0.477226 0.833563 0
1229 2 0.470261 0.846326 0
1146 1 0.489494 0.85285 0
1137 1 0.482485 0.86569 0
1149 1 0.49125 0.807918 0
99 1 0.00695301 0.903912 0
188 2 0.001729 0.872021 0
98 1 0.0192309 0.923126 0
103 1 0.0139666 0.891025 0
191 2 0.0261961 0.910359 0
190 2 0.0401839 0.884639 0
105 1 0.0384432 0.929289 0
136 1 0.0471406 0.871705 0
134 1 0.052427 0.903565 0
139 1 0.0594362 0.890199 0
141 1 0.0716316 0.909702 0
202 2 0.0646578 0.92244 0
140 1 0.0856666 0.884726 0
396 2 0.0926381 0.872021 0
142 1 0.0838997 0.929697 0
307 1 0.0978621 0.903912 0
311 1 0.104876 0.891025 0
306 1 0.11014 0.923126 0
399 2 0.117105 0.910359 0
398 2 0.131093 0.884639 0
313 1 0.129352 0.929289 0
344 1 0.13805 0.871705 0
342 1 0.143336 0.903565 0
347 1 0.150345 0.890199 0
410 2 0.155567 0.92244 0
349 1 0.162541 0.909702 0
348 1 0.176576 0.884726 0
350 1 0.174809 0.929697 0
604 2 0.183547 0.872021 0
515 1 0.188771 0.903912 0
519 1 0.195785 0.891025 0
514 1 0.201049 0.923126 0
607 2 0.208014 0.910359 0
606 2 0.222002 0.884639 0
552 1 0.228959 0.871705 0
521 1 0.220261 0.929289 0
550 1 0.234245 0.903565 0
555 1 0.241254 0.890199 0
618 2 0.246476 0.92244 0
557 1 0.25345 0.909702 0
556 1 0.267485 0.884726 0
558 1 0.265718 0.929697 0
812 2 0.274456 0.872021 0
723 1 0.27968 0.903912 0
727 1 0.286694 0.891025 0
722 1 0.291958 0.923126 0
815 2 0.298923 0.910359 0
729 1 0.311171 0.929289 0
814 2 0.312911 0.884639 0
760 1 0.319868 0.871705 0
758 1 0.325154 0.903565 0
763 1 0.332163 0.890199 0
826 2 0.337385 0.92244 0
765 1 0.344359 0.909702 0
764 1 0.358394 0.884726 0
766 1 0.356627 0.929697 0
931 1 0.370589 0.903912 0
1020 2 0.365365 0.872021 0
930 1 0.382867 0.923126 0
935 1 0.377603 0.891025 0
1023 2 0.389832 0.910359 0
1022 2 0.40382 0.884639 0
937 1 0.40208 0.929289 0
968 1 0.410777 0.871705 0
966 1 0.416063 0.903565 0
971 1 0.423073 0.890199 0
973 1 0.435268 0.909702 0
1034 2 0.428294 0.92244 0
974 1 0.447536 0.929697 0
972 1 0.449303 0.884726 0
1228 2 0.456274 0.872021 0
1139 1 0.461498 0.903912 0
1143 1 0.468512 0.891025 0
1138 1 0.473776 0.923126 0
1231 2 0.480742 0.910359 0
1145 1 0.492989 0.929289 0
1230 2 0.494729 0.884639 0
100 1 0.00518954 0.948912 0
94 1 0.0104631 0.980981 0
96 1 0.0174771 0.968116 0
172 2 0.0227142 0.999967 0
104 1 0.0296794 0.987178 0
102 1 0.0314324 0.94219 0
95 1 0.0437192 0.96129 0
203 2 0.0506877 0.948337 0
131 1 0.055905 0.980288 0
132 1 0.0629252 0.967437 0
137 1 0.0768694 0.94234 0
204 2 0.0751329 0.987279 0
201 2 0.089122 0.96168 0
302 1 0.101372 0.980981 0
308 1 0.0960986 0.948912 0
380 2 0.113623 0.999967 0
304 1 0.108386 0.968116 0
310 1 0.122342 0.94219 0
312 1 0.120589 0.987178 0
303 1 0.134628 0.96129 0
411 2 0.141597 0.948337 0
339 1 0.146814 0.980288 0
340 1 0.153834 0.967437 0
412 2 0.166042 0.987279 0
345 1 0.167779 0.94234 0
409 2 0.180031 0.96168 0
516 1 0.187008 0.948912 0
510 1 0.192281 0.980981 0
588 2 0.204532 0.999967 0
512 1 0.199295 0.968116 0
520 1 0.211498 0.987178 0
518 1 0.213251 0.94219 0
511 1 0.225537 0.96129 0
619 2 0.232506 0.948337 0
547 1 0.237723 0.980288 0
548 1 0.244743 0.967437 0
553 1 0.258688 0.94234 0
620 2 0.256951 0.987279 0
617 2 0.27094 0.96168 0
724 1 0.277917 0.948912 0
718 1 0.28319 0.980981 0
720 1 0.290204 0.968116 0
796 2 0.295441 0.999967 0
726 1 0.30416 0.94219 0
728 1 0.302407 0.987178 0
719 1 0.316446 0.96129 0
755 1 0.328632 0.980288 0
827 2 0.323415 0.948337 0
756 1 0.335652 0.967437 0
761 1 0.349597 0.94234 0
828 2 0.34786 0.987279 0
825 2 0.361849 0.96168 0
932 1 0.368826 0.948912 0
926 1 0.374099 0.980981 0
928 1 0.381113 0.968116 0
1004 2 0.386351 0.999967 0
936 1 0.393316 0.987178 0
934 1 0.395069 0.94219 0
927 1 0.407356 0.96129 0
1035 2 0.414324 0.948337 0
963 1 0.419541 0.980288 0
964 1 0.426562 0.967437 0
969 1 0.440506 0.94234 0
1036 2 0.438769 0.987279 0
1033 2 0.452758 0.96168 0
1134 1 0.465009 0.980981 0
1140 1 0.459735 0.948912 0
1212 2 0.47726 0.999967 0
1136 1 0.472023 0.968116 0
1144 1 0.484225 0.987178 0