# USER_LATT cell with dimension 2 x 2 x 1 and a = 1
       208  atoms
         2  atom types

 0.    17.73630087831560  xlo xhi
 0.    30.72017425957200  ylo yhi
 0.   100.00000000000000  zlo zhi

Masses

1 12.0112
2 14.0067

Atoms

1 1     1.02325153842222     3.54463194685359     0.00000000000000
2 1     0.34108680219089     1.18154398228453     0.00000000000000
3 1     7.16273416450424     4.33232793504327     0.00000000000000
4 1     5.79840469204157     4.72617592913811     0.00000000000000
5 1     4.77515315361935     3.74156362394457     0.00000000000000
6 1     5.11623995581023     2.36308796456906     0.00000000000000
7 1     2.38758101088489     3.15078395275874     0.00000000000000
8 1     5.45732675800112     6.10465158851363     0.00000000000000
9 1     7.50382096669513     2.95386763575489     0.00000000000000
10 1     3.06974574711623     5.51387191732780     0.00000000000000
11 1     3.41082368115668     4.13541161803941     0.00000000000000
12 1     2.72865894492534     1.77230829338323     0.00000000000000
13 1     0.68216473623134     4.92310760622910     0.00000000000000
14 1     8.18598570292646     5.31695560032394     0.00000000000000
15 1     7.84489890073558     6.69541589961233     0.00000000000000
16 1     4.09298841738801     1.37846029928839     0.00000000000000
17 1     1.70541627465356     0.78769598818969     0.00000000000000
18 1     8.18598570292646     0.19691631700386     0.00000000000000
19 1     6.48056942827291     1.96923997047421     0.00000000000000
20 1     6.82165623046379     0.59077967118583     0.00000000000000
21 1     2.04649420869401    14.76930745860017     0.00000000000000
22 1     8.52706363696691    14.17854314750147     0.00000000000000
23 1     3.41082368115668    14.37545946450533     0.00000000000000
24 1     5.45732675800112    11.22467551174659     0.00000000000000
25 1     3.75191048334756    12.99699916521694     0.00000000000000
26 1     1.36432947246267    12.40621949403111     0.00000000000000
27 1     1.02325153842222    13.78469515340663     0.00000000000000
28 1     0.68216473623134    10.04313152946206     0.00000000000000
29 1     0.34108680219089    11.42160718883757     0.00000000000000
30 1     6.13949149423246    13.58776347631564     0.00000000000000
31 1     3.06974574711623    10.63389584056076     0.00000000000000
32 1     2.72865894492534    12.01237149993627     0.00000000000000
33 1     5.79840469204157    14.96623913569116     0.00000000000000
34 1     7.84489890073558    11.81545518293242     0.00000000000000
35 1     5.11623995581023    12.60315117112210     0.00000000000000
36 1     7.50382096669513    13.19391548222080     0.00000000000000
37 1     8.52706363696691     9.05850386418139     0.00000000000000
38 1     6.82165623046379    10.83082751765174     0.00000000000000
39 1     6.48056942827291     7.08926389370717     0.00000000000000
40 1     3.75191048334756     7.87695988189686     0.00000000000000
41 1     4.77515315361935     8.86158754717753     0.00000000000000
42 1     6.13949149423246     8.46773955308269     0.00000000000000
43 1     7.16273416450424     9.45235185827623     0.00000000000000
44 1     1.70541627465356     5.90771991142264     0.00000000000000
45 1     1.36432947246267     7.28619557079816     0.00000000000000
46 1     4.09298841738801     6.49849958260847     0.00000000000000
47 1     2.38758101088489     8.27080787599170     0.00000000000000
48 1     2.04649420869401     9.64928353536721     0.00000000000000
49 2     0.00000000000000     2.56001964166004     0.00000000000000
50 2     0.00000000000000     7.68004356489300     0.00000000000000
51 2     4.43407521957890     0.00000000000000     0.00000000000000
52 2     4.43407521957890    10.24006320655304     0.00000000000000
53 1     9.89140197758002     3.54463194685359     0.00000000000000
54 1     9.20923724134869     1.18154398228453     0.00000000000000
55 1    16.03088460366204     4.33232793504327     0.00000000000000
56 1    14.66655513119937     4.72617592913811     0.00000000000000
57 1    13.64330359277715     3.74156362394457     0.00000000000000
58 1    13.98439039496803     2.36308796456906     0.00000000000000
59 1    11.25573145004269     3.15078395275874     0.00000000000000
60 1    14.32547719715892     6.10465158851363     0.00000000000000
61 1    16.37197140585293     2.95386763575489     0.00000000000000
62 1    11.93789618627403     5.51387191732780     0.00000000000000
63 1    12.27897412031448     4.13541161803941     0.00000000000000
64 1    11.59680938408314     1.77230829338323     0.00000000000000
65 1     9.55031517538914     4.92310760622910     0.00000000000000
66 1    17.05413614208426     5.31695560032394     0.00000000000000
67 1    16.71304933989338     6.69541589961233     0.00000000000000
68 1    12.96113885654581     1.37846029928839     0.00000000000000
69 1    10.57356671381136     0.78769598818969     0.00000000000000
70 1    17.05413614208426     0.19691631700386     0.00000000000000
71 1    15.34871986743071     1.96923997047421     0.00000000000000
72 1    15.68980666962159     0.59077967118583     0.00000000000000
73 1    10.91464464785181    14.76930745860017     0.00000000000000
74 1    17.39521407612471    14.17854314750147     0.00000000000000
75 1    12.27897412031448    14.37545946450533     0.00000000000000
76 1    14.32547719715892    11.22467551174659     0.00000000000000
77 1    12.62006092250536    12.99699916521694     0.00000000000000
78 1    10.23247991162047    12.40621949403111     0.00000000000000
79 1     9.89140197758002    13.78469515340663     0.00000000000000
80 1     9.55031517538914    10.04313152946206     0.00000000000000
81 1     9.20923724134869    11.42160718883757     0.00000000000000
82 1    15.00764193339026    13.58776347631564     0.00000000000000
83 1    11.93789618627403    10.63389584056076     0.00000000000000
84 1    11.59680938408314    12.01237149993627     0.00000000000000
85 1    14.66655513119937    14.96623913569116     0.00000000000000
86 1    16.71304933989338    11.81545518293242     0.00000000000000
87 1    13.98439039496803    12.60315117112210     0.00000000000000
88 1    16.37197140585293    13.19391548222080     0.00000000000000
89 1    17.39521407612471     9.05850386418139     0.00000000000000
90 1    15.68980666962159    10.83082751765174     0.00000000000000
91 1    15.34871986743071     7.08926389370717     0.00000000000000
92 1    12.62006092250536     7.87695988189686     0.00000000000000
93 1    13.64330359277715     8.86158754717753     0.00000000000000
94 1    15.00764193339026     8.46773955308269     0.00000000000000
95 1    16.03088460366204     9.45235185827623     0.00000000000000
96 1    10.57356671381136     5.90771991142264     0.00000000000000
97 1    10.23247991162047     7.28619557079816     0.00000000000000
98 1    12.96113885654581     6.49849958260847     0.00000000000000
99 1    11.25573145004269     8.27080787599170     0.00000000000000
100 1    10.91464464785181     9.64928353536721     0.00000000000000
101 2     8.86815043915780     2.56001964166004     0.00000000000000
102 2     8.86815043915780     7.68004356489300     0.00000000000000
103 2    13.30222565873670     0.00000000000000     0.00000000000000
104 2    13.30222565873670    10.24006320655304     0.00000000000000
105 1     1.02325153842222    18.90471907663959     0.00000000000000
106 1     0.34108680219089    16.54163111207053     0.00000000000000
107 1     7.16273416450424    19.69241506482927     0.00000000000000
108 1     5.79840469204157    20.08626305892411     0.00000000000000
109 1     4.77515315361935    19.10165075373057     0.00000000000000
110 1     5.11623995581023    17.72317509435506     0.00000000000000
111 1     2.38758101088489    18.51087108254474     0.00000000000000
112 1     5.45732675800112    21.46473871829963     0.00000000000000
113 1     7.50382096669513    18.31395476554088     0.00000000000000
114 1     3.06974574711623    20.87395904711380     0.00000000000000
115 1     3.41082368115668    19.49549874782542     0.00000000000000
116 1     2.72865894492534    17.13239542316923     0.00000000000000
117 1     0.68216473623134    20.28319473601510     0.00000000000000
118 1     8.18598570292646    20.67704273010995     0.00000000000000
119 1     7.84489890073558    22.05550302939833     0.00000000000000
120 1     4.09298841738801    16.73854742907438     0.00000000000000
121 1     1.70541627465356    16.14778311797569     0.00000000000000
122 1     8.18598570292646    15.55700344678986     0.00000000000000
123 1     6.48056942827291    17.32932710026021     0.00000000000000
124 1     6.82165623046379    15.95086680097183     0.00000000000000
125 1     2.04649420869401    30.12939458838617     0.00000000000000
126 1     8.52706363696691    29.53863027728747     0.00000000000000
127 1     3.41082368115668    29.73554659429133     0.00000000000000
128 1     5.45732675800112    26.58476264153258     0.00000000000000
129 1     3.75191048334756    28.35708629500294     0.00000000000000
130 1     1.36432947246267    27.76630662381711     0.00000000000000
131 1     1.02325153842222    29.14478228319263     0.00000000000000
132 1     0.68216473623134    25.40321865924806     0.00000000000000
133 1     0.34108680219089    26.78169431862357     0.00000000000000
134 1     6.13949149423246    28.94785060610165     0.00000000000000
135 1     3.06974574711623    25.99398297034676     0.00000000000000
136 1     2.72865894492534    27.37245862972227     0.00000000000000
137 1     5.79840469204157    30.32632626547716     0.00000000000000
138 1     7.84489890073558    27.17554231271842     0.00000000000000
139 1     5.11623995581023    27.96323830090810     0.00000000000000
140 1     7.50382096669513    28.55400261200680     0.00000000000000
141 1     8.52706363696691    24.41859099396738     0.00000000000000
142 1     6.82165623046379    26.19091464743774     0.00000000000000
143 1     6.48056942827291    22.44935102349317     0.00000000000000
144 1     3.75191048334756    23.23704701168286     0.00000000000000
145 1     4.77515315361935    24.22167467696353     0.00000000000000
146 1     6.13949149423246    23.82782668286869     0.00000000000000
147 1     7.16273416450424    24.81243898806223     0.00000000000000
148 1     1.70541627465356    21.26780704120864     0.00000000000000
149 1     1.36432947246267    22.64628270058416     0.00000000000000
150 1     4.09298841738801    21.85858671239447     0.00000000000000
151 1     2.38758101088489    23.63089500577770     0.00000000000000
152 1     2.04649420869401    25.00937066515321     0.00000000000000
153 2     0.00000000000000    17.92010677144604     0.00000000000000
154 2     0.00000000000000    23.04013069467900     0.00000000000000
155 2     4.43407521957890    15.36008712978600     0.00000000000000
156 2     4.43407521957890    25.60015033633904     0.00000000000000
157 1     9.89140197758002    18.90471907663959     0.00000000000000
158 1     9.20923724134869    16.54163111207053     0.00000000000000
159 1    16.03088460366204    19.69241506482927     0.00000000000000
160 1    14.66655513119937    20.08626305892411     0.00000000000000
161 1    13.64330359277715    19.10165075373057     0.00000000000000
162 1    13.98439039496803    17.72317509435506     0.00000000000000
163 1    11.25573145004269    18.51087108254474     0.00000000000000
164 1    14.32547719715892    21.46473871829963     0.00000000000000
165 1    16.37197140585293    18.31395476554088     0.00000000000000
166 1    11.93789618627403    20.87395904711380     0.00000000000000
167 1    12.27897412031448    19.49549874782542     0.00000000000000
168 1    11.59680938408314    17.13239542316923     0.00000000000000
169 1     9.55031517538914    20.28319473601510     0.00000000000000
170 1    17.05413614208426    20.67704273010995     0.00000000000000
171 1    16.71304933989338    22.05550302939833     0.00000000000000
172 1    12.96113885654581    16.73854742907438     0.00000000000000
173 1    10.57356671381136    16.14778311797569     0.00000000000000
174 1    17.05413614208426    15.55700344678986     0.00000000000000
175 1    15.34871986743071    17.32932710026021     0.00000000000000
176 1    15.68980666962159    15.95086680097183     0.00000000000000
177 1    10.91464464785181    30.12939458838617     0.00000000000000
178 1    17.39521407612471    29.53863027728747     0.00000000000000
179 1    12.27897412031448    29.73554659429133     0.00000000000000
180 1    14.32547719715892    26.58476264153258     0.00000000000000
181 1    12.62006092250536    28.35708629500294     0.00000000000000
182 1    10.23247991162047    27.76630662381711     0.00000000000000
183 1     9.89140197758002    29.14478228319263     0.00000000000000
184 1     9.55031517538914    25.40321865924806     0.00000000000000
185 1     9.20923724134869    26.78169431862357     0.00000000000000
186 1    15.00764193339026    28.94785060610165     0.00000000000000
187 1    11.93789618627403    25.99398297034676     0.00000000000000
188 1    11.59680938408314    27.37245862972227     0.00000000000000
189 1    14.66655513119937    30.32632626547716     0.00000000000000
190 1    16.71304933989338    27.17554231271842     0.00000000000000
191 1    13.98439039496803    27.96323830090810     0.00000000000000
192 1    16.37197140585293    28.55400261200680     0.00000000000000
193 1    17.39521407612471    24.41859099396738     0.00000000000000
194 1    15.68980666962159    26.19091464743774     0.00000000000000
195 1    15.34871986743071    22.44935102349317     0.00000000000000
196 1    12.62006092250536    23.23704701168286     0.00000000000000
197 1    13.64330359277715    24.22167467696353     0.00000000000000
198 1    15.00764193339026    23.82782668286869     0.00000000000000
199 1    16.03088460366204    24.81243898806223     0.00000000000000
200 1    10.57356671381136    21.26780704120864     0.00000000000000
201 1    10.23247991162047    22.64628270058416     0.00000000000000
202 1    12.96113885654581    21.85858671239447     0.00000000000000
203 1    11.25573145004269    23.63089500577770     0.00000000000000
204 1    10.91464464785181    25.00937066515321     0.00000000000000
205 2     8.86815043915780    17.92010677144604     0.00000000000000
206 2     8.86815043915780    23.04013069467900     0.00000000000000
207 2    13.30222565873670    15.36008712978600     0.00000000000000
208 2    13.30222565873670    25.60015033633904     0.00000000000000
