LAMMPS (24 Apr 2013)
units            metal
atom_style atomic
boundary p p p
dimension 3
read_data rand_structure
  orthogonal box = (0 0 0) to (195.099 15.3601 100)
  1 by 1 by 1 MPI processor grid
  1144 atoms

pair_style        tersoff
pair_coeff      * * /home1/xggong/zhouy/tcscripts/src/potentials/BNC.tersoff  C N


thermo_style custom step pe etotal
thermo 1
dump 1 all atom 1 metropolis.lammpstrj
dump 2 all xyz  1 metropolis.xyz
dump_modify 2 element C N
dump 3 all atom 10000000 metropolis.structrure
min_style metropolis
minimize 1e-12 1e-12 1000000 1000000
WARNING: Resetting reneighboring criteria during minimization (../min.cpp:173)
Memory usage per processor = 2.4184 Mbytes
Step PotEng TotEng 
       0   -9115.7655   -9115.7655 
       1   -9120.1884   -9120.1884 
       2   -9122.0017   -9122.0017 
       3   -9124.4352   -9124.4352 
       4   -9124.8337   -9124.8337 
       5   -9126.2661   -9126.2661 
       6   -9127.8842   -9127.8842 
       7   -9133.7609   -9133.7609 
       8   -9133.8062   -9133.8062 
       9   -9135.3827   -9135.3827 
      10   -9135.3653   -9135.3653 
      11   -9136.9418   -9136.9418 
      12   -9138.0885   -9138.0885 
      13   -9140.4409   -9140.4409 
      14   -9140.7122   -9140.7122 
      15   -9141.4108   -9141.4108 
      16   -9141.7141   -9141.7141 
      17   -9143.0825   -9143.0825 
      18   -9144.6413   -9144.6413 
      19   -9144.7366   -9144.7366 
      20   -9145.4385   -9145.4385 
      21   -9145.5337   -9145.5337 
      22   -9146.2179   -9146.2179 
      23   -9146.3131   -9146.3131 
      24   -9146.5033   -9146.5033 
      25   -9146.4892   -9146.4892 
      26   -9146.5986   -9146.5986 
      27   -9146.5987   -9146.5987 
      28   -9146.5987   -9146.5987 
      29   -9146.5988   -9146.5988 
      30   -9146.5844   -9146.5844 
      31   -9146.7925   -9146.7925 
      32   -9148.0657   -9148.0657 
      33   -9148.2561   -9148.2561 
      34   -9149.2403   -9149.2403 
      35   -9149.2403   -9149.2403 
      36   -9149.2403   -9149.2403 
      37   -9149.5436   -9149.5436 
      38   -9149.6388   -9149.6388 
      39   -9149.6388   -9149.6388 
      40   -9150.0197   -9150.0197 
      41   -9150.4182   -9150.4182 
      42   -9150.5135   -9150.5135 
      43   -9150.5134   -9150.5134 
      44   -9150.5135   -9150.5135 
      45   -9150.7039   -9150.7039 
      46   -9150.7039   -9150.7039 
      47   -9150.7039   -9150.7039 
      48   -9150.7039   -9150.7039 
      49   -9150.7039   -9150.7039 
      50   -9152.1817   -9152.1817 
      51   -9152.1817   -9152.1817 
      52   -9152.2769   -9152.2769 
      53   -9152.6754   -9152.6754 
      54   -9153.3596   -9153.3596 
      55   -9153.3596   -9153.3596 
      56   -9153.7582   -9153.7582 
      57    -9153.663    -9153.663 
      58   -9153.7582   -9153.7582 
      59   -9153.8534   -9153.8534 
      60   -9153.8534   -9153.8534 
      61   -9153.8534   -9153.8534 
      62   -9153.8534   -9153.8534 
      63   -9154.4424   -9154.4424 
      64   -9154.4424   -9154.4424 
      65    -9154.841    -9154.841 
      66   -9154.8409   -9154.8409 
      67   -9154.8409   -9154.8409 
      68   -9154.8409   -9154.8409 
      69   -9154.8409   -9154.8409 
      70   -9154.8409   -9154.8409 
      71   -9154.9362   -9154.9362 
      72   -9154.9362   -9154.9362 
      73   -9154.9362   -9154.9362 
      74   -9155.2218   -9155.2218 
      75   -9155.5251   -9155.5251 
      76   -9155.7156   -9155.7156 
      77   -9155.7156   -9155.7156 
      78   -9155.8108   -9155.8108 
      79   -9156.1917   -9156.1917 
      80   -9156.1917   -9156.1917 
      81    -9156.495    -9156.495 
      82    -9156.495    -9156.495 
      83   -9156.5902   -9156.5902 
      84   -9156.6855   -9156.6855 
      85   -9156.6855   -9156.6855 
      86   -9156.6855   -9156.6855 
      87   -9156.6855   -9156.6855 
      88   -9156.6854   -9156.6854 
      89   -9156.6855   -9156.6855 
      90   -9156.6855   -9156.6855 
      91   -9156.6855   -9156.6855 
      92   -9156.6855   -9156.6855 
      93   -9156.7807   -9156.7807 
