# USER_LATT cell with dimension 1 x 1 x 1 and a = 1
        52  atoms
         2  atom types

 0.     8.86815043915780  xlo xhi
 0.    15.36008712978600  ylo yhi
 0.   100.00000000000000  zlo zhi

Masses

1 12.0112
2 14.0067

Atoms

1 1     1.02325153842222     3.54463194685359     0.00000000000000
2 1     0.34108680219089     1.18154398228453     0.00000000000000
3 1     7.16273416450424     4.33232793504327     0.00000000000000
4 1     5.79840469204157     4.72617592913811     0.00000000000000
5 1     4.77515315361935     3.74156362394457     0.00000000000000
6 1     5.11623995581023     2.36308796456906     0.00000000000000
7 1     2.38758101088489     3.15078395275874     0.00000000000000
8 1     5.45732675800112     6.10465158851363     0.00000000000000
9 1     7.50382096669513     2.95386763575489     0.00000000000000
10 1     3.06974574711623     5.51387191732780     0.00000000000000
11 1     3.41082368115668     4.13541161803941     0.00000000000000
12 1     2.72865894492534     1.77230829338323     0.00000000000000
13 1     0.68216473623134     4.92310760622910     0.00000000000000
14 1     8.18598570292646     5.31695560032394     0.00000000000000
15 1     7.84489890073558     6.69541589961233     0.00000000000000
16 1     4.09298841738801     1.37846029928839     0.00000000000000
17 1     1.70541627465356     0.78769598818969     0.00000000000000
18 1     8.18598570292646     0.19691631700386     0.00000000000000
19 1     6.48056942827291     1.96923997047421     0.00000000000000
20 1     6.82165623046379     0.59077967118583     0.00000000000000
21 1     2.04649420869401    14.76930745860017     0.00000000000000
22 1     8.52706363696691    14.17854314750147     0.00000000000000
23 1     3.41082368115668    14.37545946450533     0.00000000000000
24 1     5.45732675800112    11.22467551174659     0.00000000000000
25 1     3.75191048334756    12.99699916521694     0.00000000000000
26 1     1.36432947246267    12.40621949403111     0.00000000000000
27 1     1.02325153842222    13.78469515340663     0.00000000000000
28 1     0.68216473623134    10.04313152946206     0.00000000000000
29 1     0.34108680219089    11.42160718883757     0.00000000000000
30 1     6.13949149423246    13.58776347631564     0.00000000000000
31 1     3.06974574711623    10.63389584056076     0.00000000000000
32 1     2.72865894492534    12.01237149993627     0.00000000000000
33 1     5.79840469204157    14.96623913569116     0.00000000000000
34 1     7.84489890073558    11.81545518293242     0.00000000000000
35 1     5.11623995581023    12.60315117112210     0.00000000000000
36 1     7.50382096669513    13.19391548222080     0.00000000000000
37 1     8.52706363696691     9.05850386418139     0.00000000000000
38 1     6.82165623046379    10.83082751765174     0.00000000000000
39 1     6.48056942827291     7.08926389370717     0.00000000000000
40 1     3.75191048334756     7.87695988189686     0.00000000000000
41 1     4.77515315361935     8.86158754717753     0.00000000000000
42 1     6.13949149423246     8.46773955308269     0.00000000000000
43 1     7.16273416450424     9.45235185827623     0.00000000000000
44 1     1.70541627465356     5.90771991142264     0.00000000000000
45 1     1.36432947246267     7.28619557079816     0.00000000000000
46 1     4.09298841738801     6.49849958260847     0.00000000000000
47 1     2.38758101088489     8.27080787599170     0.00000000000000
48 1     2.04649420869401     9.64928353536721     0.00000000000000
49 2     0.00000000000000     2.56001964166004     0.00000000000000
50 2     0.00000000000000     7.68004356489300     0.00000000000000
51 2     4.43407521957890     0.00000000000000     0.00000000000000
52 2     4.43407521957890    10.24006320655304     0.00000000000000
