# Diamond(001) cell with dimension 3 x 3 x 3 and a = 5.43
       216  atoms
         2  atom types

 0.    16.29000000000000  xlo xhi
 0.    16.29000000000000  ylo yhi
 0.    16.29000000000000  zlo zhi

Masses

1 28.086
2 72.63

Atoms

1 1     0.00000000000000     0.00000000000000     0.00000000000000
2 1     2.71500000000000     2.71500000000000     0.00000000000000
3 1     1.35750000000000     1.35750000000000     1.35750000000000
4 1     4.07250000000000     4.07250000000000     1.35750000000000
5 1     2.71500000000000     0.00000000000000     2.71500000000000
6 1     0.00000000000000     2.71500000000000     2.71500000000000
7 1     4.07250000000000     1.35750000000000     4.07250000000000
8 1     1.35750000000000     4.07250000000000     4.07250000000000
9 1     5.43000000000000     0.00000000000000     0.00000000000000
10 1     8.14500000000000     2.71500000000000     0.00000000000000
11 1     6.78750000000000     1.35750000000000     1.35750000000000
12 1     9.50250000000000     4.07250000000000     1.35750000000000
13 1     8.14500000000000     0.00000000000000     2.71500000000000
14 1     5.43000000000000     2.71500000000000     2.71500000000000
15 1     9.50250000000000     1.35750000000000     4.07250000000000
16 1     6.78750000000000     4.07250000000000     4.07250000000000
17 1    10.86000000000000     0.00000000000000     0.00000000000000
18 1    13.57500000000000     2.71500000000000     0.00000000000000
19 1    12.21750000000000     1.35750000000000     1.35750000000000
20 1    14.93250000000000     4.07250000000000     1.35750000000000
21 1    13.57500000000000     0.00000000000000     2.71500000000000
22 1    10.86000000000000     2.71500000000000     2.71500000000000
23 1    14.93250000000000     1.35750000000000     4.07250000000000
24 1    12.21750000000000     4.07250000000000     4.07250000000000
25 1     0.00000000000000     5.43000000000000     0.00000000000000
26 1     2.71500000000000     8.14500000000000     0.00000000000000
27 1     1.35750000000000     6.78750000000000     1.35750000000000
28 1     4.07250000000000     9.50250000000000     1.35750000000000
29 1     2.71500000000000     5.43000000000000     2.71500000000000
30 1     0.00000000000000     8.14500000000000     2.71500000000000
31 1     4.07250000000000     6.78750000000000     4.07250000000000
32 1     1.35750000000000     9.50250000000000     4.07250000000000
33 1     5.43000000000000     5.43000000000000     0.00000000000000
34 1     8.14500000000000     8.14500000000000     0.00000000000000
35 1     6.78750000000000     6.78750000000000     1.35750000000000
36 1     9.50250000000000     9.50250000000000     1.35750000000000
37 1     8.14500000000000     5.43000000000000     2.71500000000000
38 1     5.43000000000000     8.14500000000000     2.71500000000000
39 1     9.50250000000000     6.78750000000000     4.07250000000000
40 1     6.78750000000000     9.50250000000000     4.07250000000000
41 1    10.86000000000000     5.43000000000000     0.00000000000000
42 1    13.57500000000000     8.14500000000000     0.00000000000000
43 1    12.21750000000000     6.78750000000000     1.35750000000000
44 1    14.93250000000000     9.50250000000000     1.35750000000000
45 1    13.57500000000000     5.43000000000000     2.71500000000000
46 1    10.86000000000000     8.14500000000000     2.71500000000000
47 1    14.93250000000000     6.78750000000000     4.07250000000000
48 1    12.21750000000000     9.50250000000000     4.07250000000000
49 1     0.00000000000000    10.86000000000000     0.00000000000000
50 1     2.71500000000000    13.57500000000000     0.00000000000000
51 1     1.35750000000000    12.21750000000000     1.35750000000000
52 1     4.07250000000000    14.93250000000000     1.35750000000000
53 1     2.71500000000000    10.86000000000000     2.71500000000000
54 1     0.00000000000000    13.57500000000000     2.71500000000000
55 1     4.07250000000000    12.21750000000000     4.07250000000000
56 1     1.35750000000000    14.93250000000000     4.07250000000000
57 1     5.43000000000000    10.86000000000000     0.00000000000000
58 1     8.14500000000000    13.57500000000000     0.00000000000000
59 1     6.78750000000000    12.21750000000000     1.35750000000000
60 1     9.50250000000000    14.93250000000000     1.35750000000000
61 1     8.14500000000000    10.86000000000000     2.71500000000000
62 1     5.43000000000000    13.57500000000000     2.71500000000000
63 1     9.50250000000000    12.21750000000000     4.07250000000000
64 1     6.78750000000000    14.93250000000000     4.07250000000000
65 1    10.86000000000000    10.86000000000000     0.00000000000000
66 1    13.57500000000000    13.57500000000000     0.00000000000000
67 1    12.21750000000000    12.21750000000000     1.35750000000000
68 1    14.93250000000000    14.93250000000000     1.35750000000000
69 1    13.57500000000000    10.86000000000000     2.71500000000000
70 1    10.86000000000000    13.57500000000000     2.71500000000000
71 1    14.93250000000000    12.21750000000000     4.07250000000000
72 1    12.21750000000000    14.93250000000000     4.07250000000000
73 1     0.00000000000000     0.00000000000000     5.43000000000000
74 1     2.71500000000000     2.71500000000000     5.43000000000000
75 1     1.35750000000000     1.35750000000000     6.78750000000000
76 1     4.07250000000000     4.07250000000000     6.78750000000000
77 1     2.71500000000000     0.00000000000000     8.14500000000000
78 1     0.00000000000000     2.71500000000000     8.14500000000000
79 1     4.07250000000000     1.35750000000000     9.50250000000000
80 1     1.35750000000000     4.07250000000000     9.50250000000000
81 1     5.43000000000000     0.00000000000000     5.43000000000000
82 1     8.14500000000000     2.71500000000000     5.43000000000000
83 1     6.78750000000000     1.35750000000000     6.78750000000000
84 1     9.50250000000000     4.07250000000000     6.78750000000000
85 1     8.14500000000000     0.00000000000000     8.14500000000000
86 1     5.43000000000000     2.71500000000000     8.14500000000000
87 1     9.50250000000000     1.35750000000000     9.50250000000000
88 1     6.78750000000000     4.07250000000000     9.50250000000000
89 1    10.86000000000000     0.00000000000000     5.43000000000000
90 1    13.57500000000000     2.71500000000000     5.43000000000000
91 1    12.21750000000000     1.35750000000000     6.78750000000000
92 1    14.93250000000000     4.07250000000000     6.78750000000000
93 1    13.57500000000000     0.00000000000000     8.14500000000000
94 1    10.86000000000000     2.71500000000000     8.14500000000000
95 1    14.93250000000000     1.35750000000000     9.50250000000000
96 1    12.21750000000000     4.07250000000000     9.50250000000000
97 1     0.00000000000000     5.43000000000000     5.43000000000000
98 1     2.71500000000000     8.14500000000000     5.43000000000000
99 1     1.35750000000000     6.78750000000000     6.78750000000000
100 1     4.07250000000000     9.50250000000000     6.78750000000000
101 1     2.71500000000000     5.43000000000000     8.14500000000000
102 1     0.00000000000000     8.14500000000000     8.14500000000000
103 1     4.07250000000000     6.78750000000000     9.50250000000000
104 1     1.35750000000000     9.50250000000000     9.50250000000000
105 1     5.43000000000000     5.43000000000000     5.43000000000000
106 1     8.14500000000000     8.14500000000000     5.43000000000000
107 1     6.78750000000000     6.78750000000000     6.78750000000000
108 1     9.50250000000000     9.50250000000000     6.78750000000000
109 1     8.14500000000000     5.43000000000000     8.14500000000000
110 1     5.43000000000000     8.14500000000000     8.14500000000000
111 1     9.50250000000000     6.78750000000000     9.50250000000000
112 1     6.78750000000000     9.50250000000000     9.50250000000000
113 1    10.86000000000000     5.43000000000000     5.43000000000000
114 1    13.57500000000000     8.14500000000000     5.43000000000000
115 1    12.21750000000000     6.78750000000000     6.78750000000000
116 1    14.93250000000000     9.50250000000000     6.78750000000000
117 1    13.57500000000000     5.43000000000000     8.14500000000000
118 1    10.86000000000000     8.14500000000000     8.14500000000000
119 1    14.93250000000000     6.78750000000000     9.50250000000000
120 1    12.21750000000000     9.50250000000000     9.50250000000000
121 1     0.00000000000000    10.86000000000000     5.43000000000000
122 1     2.71500000000000    13.57500000000000     5.43000000000000
123 1     1.35750000000000    12.21750000000000     6.78750000000000
124 1     4.07250000000000    14.93250000000000     6.78750000000000
125 1     2.71500000000000    10.86000000000000     8.14500000000000
126 1     0.00000000000000    13.57500000000000     8.14500000000000
127 1     4.07250000000000    12.21750000000000     9.50250000000000
128 1     1.35750000000000    14.93250000000000     9.50250000000000
129 1     5.43000000000000    10.86000000000000     5.43000000000000
130 1     8.14500000000000    13.57500000000000     5.43000000000000
131 1     6.78750000000000    12.21750000000000     6.78750000000000
132 1     9.50250000000000    14.93250000000000     6.78750000000000
133 1     8.14500000000000    10.86000000000000     8.14500000000000
134 1     5.43000000000000    13.57500000000000     8.14500000000000
135 1     9.50250000000000    12.21750000000000     9.50250000000000
136 1     6.78750000000000    14.93250000000000     9.50250000000000
137 1    10.86000000000000    10.86000000000000     5.43000000000000
138 2    13.57500000000000    13.57500000000000     5.43000000000000
139 1    12.21750000000000    12.21750000000000     6.78750000000000
140 1    14.93250000000000    14.93250000000000     6.78750000000000
141 1    13.57500000000000    10.86000000000000     8.14500000000000
142 1    10.86000000000000    13.57500000000000     8.14500000000000
143 1    14.93250000000000    12.21750000000000     9.50250000000000
144 1    12.21750000000000    14.93250000000000     9.50250000000000
145 1     0.00000000000000     0.00000000000000    10.86000000000000
146 1     2.71500000000000     2.71500000000000    10.86000000000000
147 1     1.35750000000000     1.35750000000000    12.21750000000000
148 1     4.07250000000000     4.07250000000000    12.21750000000000
149 1     2.71500000000000     0.00000000000000    13.57500000000000
150 1     0.00000000000000     2.71500000000000    13.57500000000000
151 1     4.07250000000000     1.35750000000000    14.93250000000000
152 1     1.35750000000000     4.07250000000000    14.93250000000000
153 1     5.43000000000000     0.00000000000000    10.86000000000000
154 1     8.14500000000000     2.71500000000000    10.86000000000000
155 1     6.78750000000000     1.35750000000000    12.21750000000000
156 1     9.50250000000000     4.07250000000000    12.21750000000000
157 1     8.14500000000000     0.00000000000000    13.57500000000000
158 1     5.43000000000000     2.71500000000000    13.57500000000000
159 1     9.50250000000000     1.35750000000000    14.93250000000000
160 1     6.78750000000000     4.07250000000000    14.93250000000000
161 1    10.86000000000000     0.00000000000000    10.86000000000000
162 1    13.57500000000000     2.71500000000000    10.86000000000000
163 1    12.21750000000000     1.35750000000000    12.21750000000000
164 1    14.93250000000000     4.07250000000000    12.21750000000000
165 1    13.57500000000000     0.00000000000000    13.57500000000000
166 1    10.86000000000000     2.71500000000000    13.57500000000000
167 1    14.93250000000000     1.35750000000000    14.93250000000000
168 1    12.21750000000000     4.07250000000000    14.93250000000000
169 1     0.00000000000000     5.43000000000000    10.86000000000000
170 1     2.71500000000000     8.14500000000000    10.86000000000000
171 1     1.35750000000000     6.78750000000000    12.21750000000000
172 1     4.07250000000000     9.50250000000000    12.21750000000000
173 1     2.71500000000000     5.43000000000000    13.57500000000000
174 1     0.00000000000000     8.14500000000000    13.57500000000000
175 1     4.07250000000000     6.78750000000000    14.93250000000000
176 1     1.35750000000000     9.50250000000000    14.93250000000000
177 1     5.43000000000000     5.43000000000000    10.86000000000000
178 1     8.14500000000000     8.14500000000000    10.86000000000000
179 1     6.78750000000000     6.78750000000000    12.21750000000000
180 1     9.50250000000000     9.50250000000000    12.21750000000000
181 1     8.14500000000000     5.43000000000000    13.57500000000000
182 1     5.43000000000000     8.14500000000000    13.57500000000000
183 1     9.50250000000000     6.78750000000000    14.93250000000000
184 1     6.78750000000000     9.50250000000000    14.93250000000000
185 1    10.86000000000000     5.43000000000000    10.86000000000000
186 1    13.57500000000000     8.14500000000000    10.86000000000000
187 1    12.21750000000000     6.78750000000000    12.21750000000000
188 1    14.93250000000000     9.50250000000000    12.21750000000000
189 1    13.57500000000000     5.43000000000000    13.57500000000000
190 1    10.86000000000000     8.14500000000000    13.57500000000000
191 1    14.93250000000000     6.78750000000000    14.93250000000000
192 1    12.21750000000000     9.50250000000000    14.93250000000000
193 1     0.00000000000000    10.86000000000000    10.86000000000000
194 1     2.71500000000000    13.57500000000000    10.86000000000000
195 1     1.35750000000000    12.21750000000000    12.21750000000000
196 1     4.07250000000000    14.93250000000000    12.21750000000000
197 1     2.71500000000000    10.86000000000000    13.57500000000000
198 1     0.00000000000000    13.57500000000000    13.57500000000000
199 1     4.07250000000000    12.21750000000000    14.93250000000000
200 1     1.35750000000000    14.93250000000000    14.93250000000000
201 1     5.43000000000000    10.86000000000000    10.86000000000000
202 1     8.14500000000000    13.57500000000000    10.86000000000000
203 1     6.78750000000000    12.21750000000000    12.21750000000000
204 1     9.50250000000000    14.93250000000000    12.21750000000000
205 1     8.14500000000000    10.86000000000000    13.57500000000000
206 1     5.43000000000000    13.57500000000000    13.57500000000000
207 1     9.50250000000000    12.21750000000000    14.93250000000000
208 1     6.78750000000000    14.93250000000000    14.93250000000000
209 1    10.86000000000000    10.86000000000000    10.86000000000000
210 1    13.57500000000000    13.57500000000000    10.86000000000000
211 1    12.21750000000000    12.21750000000000    12.21750000000000
212 1    14.93250000000000    14.93250000000000    12.21750000000000
213 1    13.57500000000000    10.86000000000000    13.57500000000000
214 1    10.86000000000000    13.57500000000000    13.57500000000000
215 1    14.93250000000000    12.21750000000000    14.93250000000000
216 1    12.21750000000000    14.93250000000000    14.93250000000000
