# USER_LATT cell with dimension 1 x 1 x 1 and a = 1
       208  atoms
         2  atom types

 0.    17.73630087831600  xlo xhi
 0.    30.72017425957100  ylo yhi
 0.   100.00000000000000  zlo zhi

Masses

1 12.0112
2 14.0067

Atoms

1 1     0.34108680219090     1.18152862219736     0.00000000000000
2 1     7.16273416450440     4.33234329513026     0.00000000000000
3 1     4.77514428546902     3.74156362394445     0.00000000000000
4 1     5.11624882396079     2.36308796456898     0.00000000000000
5 1     2.38757214273451     3.15078395275864     0.00000000000000
6 1     5.45733562615169     6.10465158851343     0.00000000000000
7 1     7.50382096669530     2.95386763575479     0.00000000000000
8 1     3.41081481300632     4.13539625795215     0.00000000000000
9 1     2.72865894492540     1.77230829338317     0.00000000000000
10 1     0.68215586808091     4.92312296631607     0.00000000000000
11 1     8.18599457107709     5.31695560032377     0.00000000000000
12 1     4.09298841738811     1.37844493920121     0.00000000000000
13 1     8.18599457107709     0.19691631700385     0.00000000000000
14 1     6.82166509861439     0.59077967118581     0.00000000000000
15 1     2.04648534054361    14.76930745859969     0.00000000000000
16 1     3.41081481300632    14.37547482459199     0.00000000000000
17 1     5.45733562615169    11.22469087183335     0.00000000000000
18 1     1.36432947246270    12.40621949403071     0.00000000000000
19 1     0.68215586808091    10.04313152946173     0.00000000000000
20 1     0.34108680219090    11.42160718883720     0.00000000000000
21 1     6.13949149423260    13.58774811622807     0.00000000000000
22 1     3.06974574711630    10.63391120064754     0.00000000000000
23 1     2.72865894492540    12.01235613984875     0.00000000000000
24 1     7.84490776888619    11.81547054301916     0.00000000000000
25 1     5.11624882396079    12.60313581103456     0.00000000000000
26 1     7.50382096669530    13.19391548222037     0.00000000000000
27 1     8.52706363696710     9.05848850409396     0.00000000000000
28 1     6.82166509861439    10.83082751765139     0.00000000000000
29 1     6.48057829642349     7.08926389370694     0.00000000000000
30 1     3.75190161519721     7.87695988189660     0.00000000000000
31 1     4.77514428546902     8.86160290726437     0.00000000000000
32 1     6.13949149423260     8.46773955308241     0.00000000000000
33 1     1.70541627465360     5.90773527150958     0.00000000000000
34 1     1.36432947246270     7.28621093088505     0.00000000000000
35 1     4.09298841738811     6.49851494269539     0.00000000000000
36 1     2.04648534054361     9.64926817527977     0.00000000000000
37 1     0.00000000000000     2.56003500174709     0.00000000000000
38 1     0.00000000000000     7.68004356489275     0.00000000000000
39 1     9.89139310942981     3.54461658676634     0.00000000000000
40 1    14.66655513119970     4.72617592913796     0.00000000000000
41 1    13.64329472462702     3.74156362394445     0.00000000000000
42 1    14.32548606530969     6.10465158851343     0.00000000000000
43 1    16.37197140585330     2.95386763575479     0.00000000000000
44 1    11.93789618627430     5.51387191732762     0.00000000000000
45 1    12.27896525216432     4.13539625795215     0.00000000000000
46 1    11.59680938408341     1.77230829338317     0.00000000000000
47 1     9.55032404353979     4.92312296631607     0.00000000000000
48 1    17.05414501023509     5.31695560032377     0.00000000000000
49 1    16.71305820804420     6.69543125969924     0.00000000000000
50 1    12.96113885654611     1.37844493920121     0.00000000000000
51 1    10.57356671381160     0.78769598818966     0.00000000000000
52 1    17.05414501023509     0.19691631700385     0.00000000000000
53 1    15.34872873558149     1.96925533056128     0.00000000000000
54 1    15.68981553777239     0.59077967118581     0.00000000000000
55 1    10.91463577970161    14.76930745859969     0.00000000000000
56 1    17.39521407612511    14.17852778741388     0.00000000000000
57 1    12.27896525216432    14.37547482459199     0.00000000000000
58 1    14.32548606530969    11.22469087183335     0.00000000000000
59 1    12.62005205435521    12.99699916521652     0.00000000000000
60 1    10.23247991162070    12.40621949403071     0.00000000000000
61 1     9.89139310942981    13.78469515340618     0.00000000000000
62 1     9.55032404353979    10.04313152946173     0.00000000000000
63 1    15.00764193339060    13.58774811622807     0.00000000000000
64 1    11.59680938408341    12.01235613984875     0.00000000000000
65 1    14.66655513119970    14.96625449577780     0.00000000000000
66 1    16.37197140585330    13.19391548222037     0.00000000000000
67 1    15.68981553777239    10.83082751765139     0.00000000000000
68 1    13.64329472462702     8.86160290726437     0.00000000000000
69 1    15.00764193339060     8.46773955308241     0.00000000000000
70 1    16.03088460366240     9.45235185827592     0.00000000000000
71 1    10.23247991162070     7.28621093088505     0.00000000000000
72 1    12.96113885654611     6.49851494269539     0.00000000000000
73 1    11.25572258189251     8.27082323607856     0.00000000000000
74 1    10.91463577970161     9.64926817527977     0.00000000000000
75 1     8.86815043915800     2.56003500174709     0.00000000000000
76 1     8.86815043915800     7.68004356489275     0.00000000000000
77 1    13.30222565873700     0.00000000000000     0.00000000000000
78 1    13.30222565873700    10.24004784646558     0.00000000000000
79 1     1.02324267027181    18.90473443672610     0.00000000000000
80 1     5.79840469204170    20.08626305892346     0.00000000000000
81 1     4.77514428546902    19.10165075372995     0.00000000000000
82 1     5.45733562615169    21.46473871829893     0.00000000000000
83 1     7.50382096669530    18.31395476554029     0.00000000000000
84 1     3.06974574711630    20.87395904711312     0.00000000000000
85 1     3.41081481300632    19.49551410791191     0.00000000000000
86 1     2.72865894492540    17.13239542316867     0.00000000000000
87 1     0.68215586808091    20.28317937592731     0.00000000000000
88 1     8.18599457107709    20.67704273010927     0.00000000000000
89 1     7.84490776888619    22.05548766931048     0.00000000000000
90 1     4.09298841738811    16.73856278916097     0.00000000000000
91 1     1.70541627465360    16.14778311797516     0.00000000000000
92 1     8.18599457107709    15.55700344678935     0.00000000000000
93 1     6.48057829642349    17.32934246034678     0.00000000000000
94 1     6.82166509861439    15.95086680097131     0.00000000000000
95 1     2.04648534054361    30.12939458838519     0.00000000000000
96 1     8.52706363696710    29.53861491719938     0.00000000000000
97 1     3.41081481300632    29.73556195437749     0.00000000000000
98 1     5.45733562615169    26.58474728144459     0.00000000000000
99 1     3.75190161519721    28.35708629500202     0.00000000000000
100 1     1.36432947246270    27.76630662381621     0.00000000000000
101 1     1.02324267027181    29.14478228319168     0.00000000000000
102 1     0.68215586808091    25.40321865924723     0.00000000000000
103 1     6.13949149423260    28.94783524601357     0.00000000000000
104 1     2.72865894492540    27.37247398980851     0.00000000000000
105 1     5.79840469204170    30.32634162556330     0.00000000000000
106 1     7.50382096669530    28.55400261200587     0.00000000000000
107 1     6.82166509861439    26.19091464743689     0.00000000000000
108 1     4.77514428546902    24.22165931687561     0.00000000000000
109 1     6.13949149423260    23.82782668286791     0.00000000000000
110 1     7.16273416450440    24.81243898806142     0.00000000000000
111 1     1.36432947246270    22.64626734049629     0.00000000000000
112 1     4.09298841738811    21.85860207248089     0.00000000000000
113 1     2.38757214273451    23.63091036586406     0.00000000000000
114 1     2.04648534054361    25.00935530506527     0.00000000000000
115 1     0.00000000000000    17.92012213153259     0.00000000000000
116 1     0.00000000000000    23.04013069467825     0.00000000000000
117 1     4.43407521957900    15.36008712978550     0.00000000000000
118 1     4.43407521957900    25.60013497625108     0.00000000000000
119 1     9.20923724134890    16.54161575198286     0.00000000000000
120 1    16.03088460366240    19.69243042491576     0.00000000000000
121 1    13.64329472462702    19.10165075372995     0.00000000000000
122 1    13.98438152681791    17.72317509435448     0.00000000000000
123 1    11.25572258189251    18.51087108254414     0.00000000000000
124 1    14.32548606530969    21.46473871829893     0.00000000000000
125 1    16.37197140585330    18.31395476554029     0.00000000000000
126 1    12.27896525216432    19.49551410791191     0.00000000000000
127 1    11.59680938408341    17.13239542316867     0.00000000000000
128 1     9.55032404353979    20.28317937592731     0.00000000000000
129 1    17.05414501023509    20.67704273010927     0.00000000000000
130 1    12.96113885654611    16.73856278916097     0.00000000000000
131 1    17.05414501023509    15.55700344678935     0.00000000000000
132 1    15.68981553777239    15.95086680097131     0.00000000000000
133 1    10.91463577970161    30.12939458838519     0.00000000000000
134 1    12.27896525216432    29.73556195437749     0.00000000000000
135 1    14.32548606530969    26.58474728144459     0.00000000000000
136 1    10.23247991162070    27.76630662381621     0.00000000000000
137 1     9.55032404353979    25.40321865924723     0.00000000000000
138 1     9.20923724134890    26.78169431862270     0.00000000000000
139 1    15.00764193339060    28.94783524601357     0.00000000000000
140 1    11.93789618627430    25.99396761025878     0.00000000000000
141 1    11.59680938408341    27.37247398980851     0.00000000000000
142 1    16.71305820804420    27.17552695263040     0.00000000000000
143 1    13.98438152681791    27.96325366099432     0.00000000000000
144 1    16.37197140585330    28.55400261200587     0.00000000000000
145 1    17.39521407612511    24.41857563387946     0.00000000000000
146 1    15.68981553777239    26.19091464743689     0.00000000000000
147 1    15.34872873558149    22.44935102349244     0.00000000000000
148 1    12.62005205435521    23.23704701168210     0.00000000000000
149 1    13.64329472462702    24.22165931687561     0.00000000000000
150 1    15.00764193339060    23.82782668286791     0.00000000000000
151 1    10.57356671381160    21.26782240129508     0.00000000000000
152 1    10.23247991162070    22.64626734049629     0.00000000000000
153 1    12.96113885654611    21.85860207248089     0.00000000000000
154 1    10.91463577970161    25.00935530506527     0.00000000000000
155 1     8.86815043915800    17.92012213153259     0.00000000000000
156 1     8.86815043915800    23.04013069467825     0.00000000000000
157 2     1.02324267027181     3.54461658676634     0.00000000000000
158 2     5.79840469204170     4.72617592913796     0.00000000000000
159 2     3.06974574711630     5.51387191732762     0.00000000000000
160 2     7.84490776888619     6.69543125969924     0.00000000000000
161 2     1.70541627465360     0.78769598818966     0.00000000000000
162 2     6.48057829642349     1.96925533056128     0.00000000000000
163 2     8.52706363696710    14.17852778741388     0.00000000000000
164 2     3.75190161519721    12.99699916521652     0.00000000000000
165 2     1.02324267027181    13.78469515340618     0.00000000000000
166 2     5.79840469204170    14.96625449577780     0.00000000000000
167 2     7.16273416450440     9.45235185827592     0.00000000000000
168 2     2.38757214273451     8.27082323607856     0.00000000000000
169 2     4.43407521957900     0.00000000000000     0.00000000000000
170 2     4.43407521957900    10.24004784646558     0.00000000000000
171 2     9.20923724134890     1.18152862219736     0.00000000000000
172 2    16.03088460366240     4.33234329513026     0.00000000000000
173 2    13.98438152681791     2.36308796456898     0.00000000000000
174 2    11.25572258189251     3.15078395275864     0.00000000000000
175 2     9.20923724134890    11.42160718883720     0.00000000000000
176 2    11.93789618627430    10.63391120064754     0.00000000000000
177 2    16.71305820804420    11.81547054301916     0.00000000000000
178 2    13.98438152681791    12.60313581103456     0.00000000000000
179 2    17.39521407612511     9.05848850409396     0.00000000000000
180 2    15.34872873558149     7.08926389370694     0.00000000000000
181 2    12.62005205435521     7.87695988189660     0.00000000000000
182 2    10.57356671381160     5.90773527150958     0.00000000000000
183 2     0.34108680219090    16.54161575198286     0.00000000000000
184 2     7.16273416450440    19.69243042491576     0.00000000000000
185 2     5.11624882396079    17.72317509435448     0.00000000000000
186 2     2.38757214273451    18.51087108254414     0.00000000000000
187 2     0.34108680219090    26.78169431862270     0.00000000000000
188 2     3.06974574711630    25.99396761025878     0.00000000000000
189 2     7.84490776888619    27.17552695263040     0.00000000000000
190 2     5.11624882396079    27.96325366099432     0.00000000000000
191 2     8.52706363696710    24.41857563387946     0.00000000000000
192 2     6.48057829642349    22.44935102349244     0.00000000000000
193 2     3.75190161519721    23.23704701168210     0.00000000000000
194 2     1.70541627465360    21.26782240129508     0.00000000000000
195 2     9.89139310942981    18.90473443672610     0.00000000000000
196 2    14.66655513119970    20.08626305892346     0.00000000000000
197 2    11.93789618627430    20.87395904711312     0.00000000000000
198 2    16.71305820804420    22.05548766931048     0.00000000000000
199 2    10.57356671381160    16.14778311797516     0.00000000000000
200 2    15.34872873558149    17.32934246034678     0.00000000000000
201 2    17.39521407612511    29.53861491719938     0.00000000000000
202 2    12.62005205435521    28.35708629500202     0.00000000000000
203 2     9.89139310942981    29.14478228319168     0.00000000000000
204 2    14.66655513119970    30.32634162556330     0.00000000000000
205 2    16.03088460366240    24.81243898806142     0.00000000000000
206 2    11.25572258189251    23.63091036586406     0.00000000000000
207 2    13.30222565873700    15.36008712978550     0.00000000000000
208 2    13.30222565873700    25.60013497625108     0.00000000000000
