# Graphene cell with dimension 40 x 4 x 1 and a = 2.45958
       640  atoms
         2  atom types

 0.    98.38328000000001  xlo xhi
 0.    17.04048395752750  ylo yhi
 0.    24.59582000000000  zlo zhi

Masses

1 14.0067
2 12.0112

Atoms

1 2     0.00000000000000     0.00000000000000     0.00000000000000
2 2     0.00000000000000     1.42004032979396     0.00000000000000
3 1     1.22979100000000     2.13006049469094     0.00000000000000
4 1     1.22979100000000     3.55010082448490     0.00000000000000
5 2     2.45958200000000     0.00000000000000     0.00000000000000
6 1     2.45958200000000     1.42004032979396     0.00000000000000
7 1     3.68937300000000     2.13006049469094     0.00000000000000
8 1     3.68937300000000     3.55010082448490     0.00000000000000
9 1     4.91916400000000     0.00000000000000     0.00000000000000
10 1     4.91916400000000     1.42004032979396     0.00000000000000
11 1     6.14895500000000     2.13006049469094     0.00000000000000
12 2     6.14895500000000     3.55010082448490     0.00000000000000
13 1     7.37874600000000     0.00000000000000     0.00000000000000
14 2     7.37874600000000     1.42004032979396     0.00000000000000
15 1     8.60853700000000     2.13006049469094     0.00000000000000
16 1     8.60853700000000     3.55010082448490     0.00000000000000
17 1     9.83832800000000     0.00000000000000     0.00000000000000
18 1     9.83832800000000     1.42004032979396     0.00000000000000
19 2    11.06811900000000     2.13006049469094     0.00000000000000
20 2    11.06811900000000     3.55010082448490     0.00000000000000
21 1    12.29791000000000     0.00000000000000     0.00000000000000
22 1    12.29791000000000     1.42004032979396     0.00000000000000
23 2    13.52770100000000     2.13006049469094     0.00000000000000
24 1    13.52770100000000     3.55010082448490     0.00000000000000
25 1    14.75749200000000     0.00000000000000     0.00000000000000
26 1    14.75749200000000     1.42004032979396     0.00000000000000
27 1    15.98728300000000     2.13006049469094     0.00000000000000
28 1    15.98728300000000     3.55010082448490     0.00000000000000
29 1    17.21707400000000     0.00000000000000     0.00000000000000
30 2    17.21707400000000     1.42004032979396     0.00000000000000
31 1    18.44686500000000     2.13006049469094     0.00000000000000
32 2    18.44686500000000     3.55010082448490     0.00000000000000
33 1    19.67665600000000     0.00000000000000     0.00000000000000
34 2    19.67665600000000     1.42004032979396     0.00000000000000
35 1    20.90644700000000     2.13006049469094     0.00000000000000
36 2    20.90644700000000     3.55010082448490     0.00000000000000
37 1    22.13623800000000     0.00000000000000     0.00000000000000
38 1    22.13623800000000     1.42004032979396     0.00000000000000
39 1    23.36602900000000     2.13006049469094     0.00000000000000
40 1    23.36602900000000     3.55010082448490     0.00000000000000
41 1    24.59582000000000     0.00000000000000     0.00000000000000
42 1    24.59582000000000     1.42004032979396     0.00000000000000
43 1    25.82561100000000     2.13006049469094     0.00000000000000
44 1    25.82561100000000     3.55010082448490     0.00000000000000
45 1    27.05540200000000     0.00000000000000     0.00000000000000
46 1    27.05540200000000     1.42004032979396     0.00000000000000
47 2    28.28519300000000     2.13006049469094     0.00000000000000
48 1    28.28519300000000     3.55010082448490     0.00000000000000
49 1    29.51498400000000     0.00000000000000     0.00000000000000
50 1    29.51498400000000     1.42004032979396     0.00000000000000
51 1    30.74477500000000     2.13006049469094     0.00000000000000
52 1    30.74477500000000     3.55010082448490     0.00000000000000
53 1    31.97456600000000     0.00000000000000     0.00000000000000
54 1    31.97456600000000     1.42004032979396     0.00000000000000
55 1    33.20435700000000     2.13006049469094     0.00000000000000
56 1    33.20435700000000     3.55010082448490     0.00000000000000
57 1    34.43414800000000     0.00000000000000     0.00000000000000
58 2    34.43414800000000     1.42004032979396     0.00000000000000
59 1    35.66393900000000     2.13006049469094     0.00000000000000
60 1    35.66393900000000     3.55010082448490     0.00000000000000
61 1    36.89373000000001     0.00000000000000     0.00000000000000
62 1    36.89373000000001     1.42004032979396     0.00000000000000
63 2    38.12352100000000     2.13006049469094     0.00000000000000
64 1    38.12352100000000     3.55010082448490     0.00000000000000
65 1    39.35331200000000     0.00000000000000     0.00000000000000
66 1    39.35331200000000     1.42004032979396     0.00000000000000
67 1    40.58310300000000     2.13006049469094     0.00000000000000
68 1    40.58310300000000     3.55010082448490     0.00000000000000
69 1    41.81289400000000     0.00000000000000     0.00000000000000
70 1    41.81289400000000     1.42004032979396     0.00000000000000
71 1    43.04268500000001     2.13006049469094     0.00000000000000
72 1    43.04268500000001     3.55010082448490     0.00000000000000
73 2    44.27247600000000     0.00000000000000     0.00000000000000
74 1    44.27247600000000     1.42004032979396     0.00000000000000
75 2    45.50226700000000     2.13006049469094     0.00000000000000
76 2    45.50226700000000     3.55010082448490     0.00000000000000
77 1    46.73205800000000     0.00000000000000     0.00000000000000
78 2    46.73205800000000     1.42004032979396     0.00000000000000
79 2    47.96184900000000     2.13006049469094     0.00000000000000
80 1    47.96184900000000     3.55010082448490     0.00000000000000
81 1    49.19164000000001     0.00000000000000     0.00000000000000
82 2    49.19164000000001     1.42004032979396     0.00000000000000
83 2    50.42143100000001     2.13006049469094     0.00000000000000
84 2    50.42143100000001     3.55010082448490     0.00000000000000
85 1    51.65122200000000     0.00000000000000     0.00000000000000
86 1    51.65122200000000     1.42004032979396     0.00000000000000
87 1    52.88101300000000     2.13006049469094     0.00000000000000
88 2    52.88101300000000     3.55010082448490     0.00000000000000
89 1    54.11080400000000     0.00000000000000     0.00000000000000
90 1    54.11080400000000     1.42004032979396     0.00000000000000
91 2    55.34059500000000     2.13006049469094     0.00000000000000
92 1    55.34059500000000     3.55010082448490     0.00000000000000
93 1    56.57038600000001     0.00000000000000     0.00000000000000
94 1    56.57038600000001     1.42004032979396     0.00000000000000
95 1    57.80017700000001     2.13006049469094     0.00000000000000
96 1    57.80017700000001     3.55010082448490     0.00000000000000
97 1    59.02996800000000     0.00000000000000     0.00000000000000
98 1    59.02996800000000     1.42004032979396     0.00000000000000
99 1    60.25975900000000     2.13006049469094     0.00000000000000
100 1    60.25975900000000     3.55010082448490     0.00000000000000
101 1    61.48955000000000     0.00000000000000     0.00000000000000
102 2    61.48955000000000     1.42004032979396     0.00000000000000
103 1    62.71934100000001     2.13006049469094     0.00000000000000
104 1    62.71934100000001     3.55010082448490     0.00000000000000
105 1    63.94913200000001     0.00000000000000     0.00000000000000
106 1    63.94913200000001     1.42004032979396     0.00000000000000
107 2    65.17892300000000     2.13006049469094     0.00000000000000
108 1    65.17892300000000     3.55010082448490     0.00000000000000
109 1    66.40871400000000     0.00000000000000     0.00000000000000
110 2    66.40871400000000     1.42004032979396     0.00000000000000
111 1    67.63850500000001     2.13006049469094     0.00000000000000
112 2    67.63850500000001     3.55010082448490     0.00000000000000
113 1    68.86829600000000     0.00000000000000     0.00000000000000
114 2    68.86829600000000     1.42004032979396     0.00000000000000
115 1    70.09808700000001     2.13006049469094     0.00000000000000
116 1    70.09808700000001     3.55010082448490     0.00000000000000
117 2    71.32787800000000     0.00000000000000     0.00000000000000
118 2    71.32787800000000     1.42004032979396     0.00000000000000
119 2    72.55766900000000     2.13006049469094     0.00000000000000
120 1    72.55766900000000     3.55010082448490     0.00000000000000
121 1    73.78746000000001     0.00000000000000     0.00000000000000
122 2    73.78746000000001     1.42004032979396     0.00000000000000
123 2    75.01725100000000     2.13006049469094     0.00000000000000
124 2    75.01725100000000     3.55010082448490     0.00000000000000
125 1    76.24704200000001     0.00000000000000     0.00000000000000
126 1    76.24704200000001     1.42004032979396     0.00000000000000
127 1    77.47683300000000     2.13006049469094     0.00000000000000
128 1    77.47683300000000     3.55010082448490     0.00000000000000
129 1    78.70662400000001     0.00000000000000     0.00000000000000
130 2    78.70662400000001     1.42004032979396     0.00000000000000
131 1    79.93641500000001     2.13006049469094     0.00000000000000
132 1    79.93641500000001     3.55010082448490     0.00000000000000
133 2    81.16620600000000     0.00000000000000     0.00000000000000
134 1    81.16620600000000     1.42004032979396     0.00000000000000
135 1    82.39599700000001     2.13006049469094     0.00000000000000
136 1    82.39599700000001     3.55010082448490     0.00000000000000
137 1    83.62578800000000     0.00000000000000     0.00000000000000
138 1    83.62578800000000     1.42004032979396     0.00000000000000
139 1    84.85557900000001     2.13006049469094     0.00000000000000
140 2    84.85557900000001     3.55010082448490     0.00000000000000
141 1    86.08537000000001     0.00000000000000     0.00000000000000
142 1    86.08537000000001     1.42004032979396     0.00000000000000
143 1    87.31516100000000     2.13006049469094     0.00000000000000
144 2    87.31516100000000     3.55010082448490     0.00000000000000
145 2    88.54495200000001     0.00000000000000     0.00000000000000
146 2    88.54495200000001     1.42004032979396     0.00000000000000
147 1    89.77474300000000     2.13006049469094     0.00000000000000
148 2    89.77474300000000     3.55010082448490     0.00000000000000
149 1    91.00453400000001     0.00000000000000     0.00000000000000
150 1    91.00453400000001     1.42004032979396     0.00000000000000
151 2    92.23432500000001     2.13006049469094     0.00000000000000
152 1    92.23432500000001     3.55010082448490     0.00000000000000
153 1    93.46411600000000     0.00000000000000     0.00000000000000
154 1    93.46411600000000     1.42004032979396     0.00000000000000
155 1    94.69390700000001     2.13006049469094     0.00000000000000
156 1    94.69390700000001     3.55010082448490     0.00000000000000
157 1    95.92369800000000     0.00000000000000     0.00000000000000
158 1    95.92369800000000     1.42004032979396     0.00000000000000
159 1    97.15348900000001     2.13006049469094     0.00000000000000
160 2    97.15348900000001     3.55010082448490     0.00000000000000
161 2     0.00000000000000     4.26012098938187     0.00000000000000
162 2     0.00000000000000     5.68016131917583     0.00000000000000
163 2     1.22979100000000     6.39018148407281     0.00000000000000
164 1     1.22979100000000     7.81022181386677     0.00000000000000
165 2     2.45958200000000     4.26012098938187     0.00000000000000
166 2     2.45958200000000     5.68016131917583     0.00000000000000
167 1     3.68937300000000     6.39018148407281     0.00000000000000
168 1     3.68937300000000     7.81022181386677     0.00000000000000
169 2     4.91916400000000     4.26012098938187     0.00000000000000
170 1     4.91916400000000     5.68016131917583     0.00000000000000
171 1     6.14895500000000     6.39018148407281     0.00000000000000
172 1     6.14895500000000     7.81022181386677     0.00000000000000
173 2     7.37874600000000     4.26012098938187     0.00000000000000
174 1     7.37874600000000     5.68016131917583     0.00000000000000
175 1     8.60853700000000     6.39018148407281     0.00000000000000
176 1     8.60853700000000     7.81022181386677     0.00000000000000
177 1     9.83832800000000     4.26012098938187     0.00000000000000
178 2     9.83832800000000     5.68016131917583     0.00000000000000
179 1    11.06811900000000     6.39018148407281     0.00000000000000
180 2    11.06811900000000     7.81022181386677     0.00000000000000
181 1    12.29791000000000     4.26012098938187     0.00000000000000
182 1    12.29791000000000     5.68016131917583     0.00000000000000
183 1    13.52770100000000     6.39018148407281     0.00000000000000
184 1    13.52770100000000     7.81022181386677     0.00000000000000
185 1    14.75749200000000     4.26012098938187     0.00000000000000
186 2    14.75749200000000     5.68016131917583     0.00000000000000
187 1    15.98728300000000     6.39018148407281     0.00000000000000
188 1    15.98728300000000     7.81022181386677     0.00000000000000
189 2    17.21707400000000     4.26012098938187     0.00000000000000
190 1    17.21707400000000     5.68016131917583     0.00000000000000
191 2    18.44686500000000     6.39018148407281     0.00000000000000
192 2    18.44686500000000     7.81022181386677     0.00000000000000
193 1    19.67665600000000     4.26012098938187     0.00000000000000
194 2    19.67665600000000     5.68016131917583     0.00000000000000
195 1    20.90644700000000     6.39018148407281     0.00000000000000
196 1    20.90644700000000     7.81022181386677     0.00000000000000
197 1    22.13623800000000     4.26012098938187     0.00000000000000
198 1    22.13623800000000     5.68016131917583     0.00000000000000
199 1    23.36602900000000     6.39018148407281     0.00000000000000
200 1    23.36602900000000     7.81022181386677     0.00000000000000
201 1    24.59582000000000     4.26012098938187     0.00000000000000
202 2    24.59582000000000     5.68016131917583     0.00000000000000
203 2    25.82561100000000     6.39018148407281     0.00000000000000
204 1    25.82561100000000     7.81022181386677     0.00000000000000
205 1    27.05540200000000     4.26012098938187     0.00000000000000
206 2    27.05540200000000     5.68016131917583     0.00000000000000
207 1    28.28519300000000     6.39018148407281     0.00000000000000
208 2    28.28519300000000     7.81022181386677     0.00000000000000
209 2    29.51498400000000     4.26012098938187     0.00000000000000
210 2    29.51498400000000     5.68016131917583     0.00000000000000
211 2    30.74477500000000     6.39018148407281     0.00000000000000
212 2    30.74477500000000     7.81022181386677     0.00000000000000
213 1    31.97456600000000     4.26012098938187     0.00000000000000
214 1    31.97456600000000     5.68016131917583     0.00000000000000
215 1    33.20435700000000     6.39018148407281     0.00000000000000
216 2    33.20435700000000     7.81022181386677     0.00000000000000
217 1    34.43414800000000     4.26012098938187     0.00000000000000
218 1    34.43414800000000     5.68016131917583     0.00000000000000
219 1    35.66393900000000     6.39018148407281     0.00000000000000
220 2    35.66393900000000     7.81022181386677     0.00000000000000
221 1    36.89373000000001     4.26012098938187     0.00000000000000
222 1    36.89373000000001     5.68016131917583     0.00000000000000
223 2    38.12352100000000     6.39018148407281     0.00000000000000
224 1    38.12352100000000     7.81022181386677     0.00000000000000
225 1    39.35331200000000     4.26012098938187     0.00000000000000
226 1    39.35331200000000     5.68016131917583     0.00000000000000
227 1    40.58310300000000     6.39018148407281     0.00000000000000
228 2    40.58310300000000     7.81022181386677     0.00000000000000
229 1    41.81289400000000     4.26012098938187     0.00000000000000
230 2    41.81289400000000     5.68016131917583     0.00000000000000
231 1    43.04268500000001     6.39018148407281     0.00000000000000
232 1    43.04268500000001     7.81022181386677     0.00000000000000
233 1    44.27247600000000     4.26012098938187     0.00000000000000
234 1    44.27247600000000     5.68016131917583     0.00000000000000
235 1    45.50226700000000     6.39018148407281     0.00000000000000
236 1    45.50226700000000     7.81022181386677     0.00000000000000
237 1    46.73205800000000     4.26012098938187     0.00000000000000
238 1    46.73205800000000     5.68016131917583     0.00000000000000
239 1    47.96184900000000     6.39018148407281     0.00000000000000
240 1    47.96184900000000     7.81022181386677     0.00000000000000
241 2    49.19164000000001     4.26012098938187     0.00000000000000
242 1    49.19164000000001     5.68016131917583     0.00000000000000
243 1    50.42143100000001     6.39018148407281     0.00000000000000
244 1    50.42143100000001     7.81022181386677     0.00000000000000
245 1    51.65122200000000     4.26012098938187     0.00000000000000
246 1    51.65122200000000     5.68016131917583     0.00000000000000
247 1    52.88101300000000     6.39018148407281     0.00000000000000
248 1    52.88101300000000     7.81022181386677     0.00000000000000
249 1    54.11080400000000     4.26012098938187     0.00000000000000
250 2    54.11080400000000     5.68016131917583     0.00000000000000
251 1    55.34059500000000     6.39018148407281     0.00000000000000
252 2    55.34059500000000     7.81022181386677     0.00000000000000
253 1    56.57038600000001     4.26012098938187     0.00000000000000
254 1    56.57038600000001     5.68016131917583     0.00000000000000
255 1    57.80017700000001     6.39018148407281     0.00000000000000
256 2    57.80017700000001     7.81022181386677     0.00000000000000
257 1    59.02996800000000     4.26012098938187     0.00000000000000
258 1    59.02996800000000     5.68016131917583     0.00000000000000
259 1    60.25975900000000     6.39018148407281     0.00000000000000
260 2    60.25975900000000     7.81022181386677     0.00000000000000
261 2    61.48955000000000     4.26012098938187     0.00000000000000
262 1    61.48955000000000     5.68016131917583     0.00000000000000
263 1    62.71934100000001     6.39018148407281     0.00000000000000
264 1    62.71934100000001     7.81022181386677     0.00000000000000
265 1    63.94913200000001     4.26012098938187     0.00000000000000
266 1    63.94913200000001     5.68016131917583     0.00000000000000
267 1    65.17892300000000     6.39018148407281     0.00000000000000
268 1    65.17892300000000     7.81022181386677     0.00000000000000
269 1    66.40871400000000     4.26012098938187     0.00000000000000
270 1    66.40871400000000     5.68016131917583     0.00000000000000
271 1    67.63850500000001     6.39018148407281     0.00000000000000
272 1    67.63850500000001     7.81022181386677     0.00000000000000
273 1    68.86829600000000     4.26012098938187     0.00000000000000
274 1    68.86829600000000     5.68016131917583     0.00000000000000
275 2    70.09808700000001     6.39018148407281     0.00000000000000
276 2    70.09808700000001     7.81022181386677     0.00000000000000
277 2    71.32787800000000     4.26012098938187     0.00000000000000
278 1    71.32787800000000     5.68016131917583     0.00000000000000
279 1    72.55766900000000     6.39018148407281     0.00000000000000
280 1    72.55766900000000     7.81022181386677     0.00000000000000
281 1    73.78746000000001     4.26012098938187     0.00000000000000
282 2    73.78746000000001     5.68016131917583     0.00000000000000
283 1    75.01725100000000     6.39018148407281     0.00000000000000
284 1    75.01725100000000     7.81022181386677     0.00000000000000
285 2    76.24704200000001     4.26012098938187     0.00000000000000
286 1    76.24704200000001     5.68016131917583     0.00000000000000
287 1    77.47683300000000     6.39018148407281     0.00000000000000
288 1    77.47683300000000     7.81022181386677     0.00000000000000
289 2    78.70662400000001     4.26012098938187     0.00000000000000
290 1    78.70662400000001     5.68016131917583     0.00000000000000
291 2    79.93641500000001     6.39018148407281     0.00000000000000
292 1    79.93641500000001     7.81022181386677     0.00000000000000
293 1    81.16620600000000     4.26012098938187     0.00000000000000
294 1    81.16620600000000     5.68016131917583     0.00000000000000
295 1    82.39599700000001     6.39018148407281     0.00000000000000
296 1    82.39599700000001     7.81022181386677     0.00000000000000
297 1    83.62578800000000     4.26012098938187     0.00000000000000
298 1    83.62578800000000     5.68016131917583     0.00000000000000
299 1    84.85557900000001     6.39018148407281     0.00000000000000
300 1    84.85557900000001     7.81022181386677     0.00000000000000
301 1    86.08537000000001     4.26012098938187     0.00000000000000
302 1    86.08537000000001     5.68016131917583     0.00000000000000
303 1    87.31516100000000     6.39018148407281     0.00000000000000
304 1    87.31516100000000     7.81022181386677     0.00000000000000
305 1    88.54495200000001     4.26012098938187     0.00000000000000
306 1    88.54495200000001     5.68016131917583     0.00000000000000
307 1    89.77474300000000     6.39018148407281     0.00000000000000
308 1    89.77474300000000     7.81022181386677     0.00000000000000
309 1    91.00453400000001     4.26012098938187     0.00000000000000
310 2    91.00453400000001     5.68016131917583     0.00000000000000
311 1    92.23432500000001     6.39018148407281     0.00000000000000
312 2    92.23432500000001     7.81022181386677     0.00000000000000
313 2    93.46411600000000     4.26012098938187     0.00000000000000
314 1    93.46411600000000     5.68016131917583     0.00000000000000
315 1    94.69390700000001     6.39018148407281     0.00000000000000
316 1    94.69390700000001     7.81022181386677     0.00000000000000
317 2    95.92369800000000     4.26012098938187     0.00000000000000
318 1    95.92369800000000     5.68016131917583     0.00000000000000
319 1    97.15348900000001     6.39018148407281     0.00000000000000
320 1    97.15348900000001     7.81022181386677     0.00000000000000
321 2     0.00000000000000     8.52024197876375     0.00000000000000
322 2     0.00000000000000     9.94028230855771     0.00000000000000
323 2     1.22979100000000    10.65030247345469     0.00000000000000
324 2     1.22979100000000    12.07034280324865     0.00000000000000
325 1     2.45958200000000     8.52024197876375     0.00000000000000
326 1     2.45958200000000     9.94028230855771     0.00000000000000
327 1     3.68937300000000    10.65030247345469     0.00000000000000
328 1     3.68937300000000    12.07034280324865     0.00000000000000
329 1     4.91916400000000     8.52024197876375     0.00000000000000
330 2     4.91916400000000     9.94028230855771     0.00000000000000
331 2     6.14895500000000    10.65030247345469     0.00000000000000
332 1     6.14895500000000    12.07034280324865     0.00000000000000
333 1     7.37874600000000     8.52024197876375     0.00000000000000
334 2     7.37874600000000     9.94028230855771     0.00000000000000
335 1     8.60853700000000    10.65030247345469     0.00000000000000
336 1     8.60853700000000    12.07034280324865     0.00000000000000
337 2     9.83832800000000     8.52024197876375     0.00000000000000
338 1     9.83832800000000     9.94028230855771     0.00000000000000
339 1    11.06811900000000    10.65030247345469     0.00000000000000
340 2    11.06811900000000    12.07034280324865     0.00000000000000
341 1    12.29791000000000     8.52024197876375     0.00000000000000
342 1    12.29791000000000     9.94028230855771     0.00000000000000
343 1    13.52770100000000    10.65030247345469     0.00000000000000
344 1    13.52770100000000    12.07034280324865     0.00000000000000
345 1    14.75749200000000     8.52024197876375     0.00000000000000
346 1    14.75749200000000     9.94028230855771     0.00000000000000
347 2    15.98728300000000    10.65030247345469     0.00000000000000
348 2    15.98728300000000    12.07034280324865     0.00000000000000
349 2    17.21707400000000     8.52024197876375     0.00000000000000
350 1    17.21707400000000     9.94028230855771     0.00000000000000
351 2    18.44686500000000    10.65030247345469     0.00000000000000
352 1    18.44686500000000    12.07034280324865     0.00000000000000
353 2    19.67665600000000     8.52024197876375     0.00000000000000
354 2    19.67665600000000     9.94028230855771     0.00000000000000
355 2    20.90644700000000    10.65030247345469     0.00000000000000
356 2    20.90644700000000    12.07034280324865     0.00000000000000
357 1    22.13623800000000     8.52024197876375     0.00000000000000
358 1    22.13623800000000     9.94028230855771     0.00000000000000
359 1    23.36602900000000    10.65030247345469     0.00000000000000
360 1    23.36602900000000    12.07034280324865     0.00000000000000
361 1    24.59582000000000     8.52024197876375     0.00000000000000
362 1    24.59582000000000     9.94028230855771     0.00000000000000
363 1    25.82561100000000    10.65030247345469     0.00000000000000
364 1    25.82561100000000    12.07034280324865     0.00000000000000
365 1    27.05540200000000     8.52024197876375     0.00000000000000
366 1    27.05540200000000     9.94028230855771     0.00000000000000
367 1    28.28519300000000    10.65030247345469     0.00000000000000
368 1    28.28519300000000    12.07034280324865     0.00000000000000
369 1    29.51498400000000     8.52024197876375     0.00000000000000
370 1    29.51498400000000     9.94028230855771     0.00000000000000
371 1    30.74477500000000    10.65030247345469     0.00000000000000
372 1    30.74477500000000    12.07034280324865     0.00000000000000
373 2    31.97456600000000     8.52024197876375     0.00000000000000
374 1    31.97456600000000     9.94028230855771     0.00000000000000
375 2    33.20435700000000    10.65030247345469     0.00000000000000
376 1    33.20435700000000    12.07034280324865     0.00000000000000
377 1    34.43414800000000     8.52024197876375     0.00000000000000
378 1    34.43414800000000     9.94028230855771     0.00000000000000
379 2    35.66393900000000    10.65030247345469     0.00000000000000
380 1    35.66393900000000    12.07034280324865     0.00000000000000
381 1    36.89373000000001     8.52024197876375     0.00000000000000
382 1    36.89373000000001     9.94028230855771     0.00000000000000
383 1    38.12352100000000    10.65030247345469     0.00000000000000
384 2    38.12352100000000    12.07034280324865     0.00000000000000
385 1    39.35331200000000     8.52024197876375     0.00000000000000
386 1    39.35331200000000     9.94028230855771     0.00000000000000
387 1    40.58310300000000    10.65030247345469     0.00000000000000
388 1    40.58310300000000    12.07034280324865     0.00000000000000
389 2    41.81289400000000     8.52024197876375     0.00000000000000
390 2    41.81289400000000     9.94028230855771     0.00000000000000
391 2    43.04268500000001    10.65030247345469     0.00000000000000
392 1    43.04268500000001    12.07034280324865     0.00000000000000
393 2    44.27247600000000     8.52024197876375     0.00000000000000
394 1    44.27247600000000     9.94028230855771     0.00000000000000
395 1    45.50226700000000    10.65030247345469     0.00000000000000
396 2    45.50226700000000    12.07034280324865     0.00000000000000
397 1    46.73205800000000     8.52024197876375     0.00000000000000
398 1    46.73205800000000     9.94028230855771     0.00000000000000
399 1    47.96184900000000    10.65030247345469     0.00000000000000
400 1    47.96184900000000    12.07034280324865     0.00000000000000
401 1    49.19164000000001     8.52024197876375     0.00000000000000
402 1    49.19164000000001     9.94028230855771     0.00000000000000
403 1    50.42143100000001    10.65030247345469     0.00000000000000
404 1    50.42143100000001    12.07034280324865     0.00000000000000
405 1    51.65122200000000     8.52024197876375     0.00000000000000
406 2    51.65122200000000     9.94028230855771     0.00000000000000
407 1    52.88101300000000    10.65030247345469     0.00000000000000
408 2    52.88101300000000    12.07034280324865     0.00000000000000
409 2    54.11080400000000     8.52024197876375     0.00000000000000
410 1    54.11080400000000     9.94028230855771     0.00000000000000
411 1    55.34059500000000    10.65030247345469     0.00000000000000
412 2    55.34059500000000    12.07034280324865     0.00000000000000
413 2    56.57038600000001     8.52024197876375     0.00000000000000
414 1    56.57038600000001     9.94028230855771     0.00000000000000
415 2    57.80017700000001    10.65030247345469     0.00000000000000
416 1    57.80017700000001    12.07034280324865     0.00000000000000
417 2    59.02996800000000     8.52024197876375     0.00000000000000
418 2    59.02996800000000     9.94028230855771     0.00000000000000
419 2    60.25975900000000    10.65030247345469     0.00000000000000
420 2    60.25975900000000    12.07034280324865     0.00000000000000
421 1    61.48955000000000     8.52024197876375     0.00000000000000
422 2    61.48955000000000     9.94028230855771     0.00000000000000
423 1    62.71934100000001    10.65030247345469     0.00000000000000
424 2    62.71934100000001    12.07034280324865     0.00000000000000
425 1    63.94913200000001     8.52024197876375     0.00000000000000
426 2    63.94913200000001     9.94028230855771     0.00000000000000
427 2    65.17892300000000    10.65030247345469     0.00000000000000
428 1    65.17892300000000    12.07034280324865     0.00000000000000
429 2    66.40871400000000     8.52024197876375     0.00000000000000
430 1    66.40871400000000     9.94028230855771     0.00000000000000
431 1    67.63850500000001    10.65030247345469     0.00000000000000
432 2    67.63850500000001    12.07034280324865     0.00000000000000