1144
Atoms. Timestep: 0
C 1.02325 3.54463 0
C 0.341087 1.18154 0
N 7.16273 4.33233 0
C 5.7984 4.72618 0
C 4.77515 3.74156 0
C 5.11624 2.36309 0
C 2.38758 3.15078 0
C 5.45733 6.10465 0
C 7.50382 2.95387 0
C 3.06975 5.51387 0
C 3.41082 4.13541 0
C 2.72866 1.77231 0
C 0.682165 4.92311 0
C 8.18599 5.31696 0
C 7.8449 6.69542 0
C 4.09299 1.37846 0
C 1.70542 0.787696 0
C 8.18599 0.196916 0
C 6.48057 1.96924 0
C 6.82166 0.59078 0
C 2.04649 14.7693 0
C 8.52706 14.1785 0
C 3.41082 14.3755 0
C 5.45733 11.2247 0
C 3.75191 12.997 0
N 1.36433 12.4062 0
C 1.02325 13.7847 0
C 0.682165 10.0431 0
C 0.341087 11.4216 0
C 6.13949 13.5878 0
C 3.06975 10.6339 0
C 2.72866 12.0124 0
C 5.7984 14.9662 0
C 7.8449 11.8155 0
C 5.11624 12.6032 0
C 7.50382 13.1939 0
C 8.52706 9.0585 0
C 6.82166 10.8308 0
N 6.48057 7.08926 0
C 3.75191 7.87696 0
C 4.77515 8.86159 0
C 6.13949 8.46774 0
C 7.16273 9.45235 0
C 1.70542 5.90772 0
C 1.36433 7.2862 0
C 4.09299 6.4985 0
C 2.38758 8.27081 0
N 2.04649 9.64928 0
C 0 2.56002 0
C 0 7.68004 0
C 4.43408 0 0
C 4.43408 10.2401 0
C 9.8914 3.54463 0
C 9.20924 1.18154 0
C 16.0309 4.33233 0
C 14.6666 4.72618 0
C 13.6433 3.74156 0
C 13.9844 2.36309 0
C 11.2557 3.15078 0
C 14.3255 6.10465 0
C 16.372 2.95387 0
C 11.9379 5.51387 0
C 12.279 4.13541 0
C 11.5968 1.77231 0
C 9.55032 4.92311 0
C 17.0541 5.31696 0
C 16.713 6.69542 0
C 12.9611 1.37846 0
C 10.5736 0.787696 0
C 17.0541 0.196916 0
C 15.3487 1.96924 0
C 15.6898 0.59078 0
C 10.9146 14.7693 0
C 17.3952 14.1785 0
C 12.279 14.3755 0
C 14.3255 11.2247 0
N 12.6201 12.997 0
C 10.2325 12.4062 0
C 9.8914 13.7847 0
C 9.55032 10.0431 0
C 9.20924 11.4216 0
C 15.0076 13.5878 0
C 11.9379 10.6339 0
C 11.5968 12.0124 0
C 14.6666 14.9662 0
C 16.713 11.8155 0
C 13.9844 12.6032 0
N 16.372 13.1939 0
C 17.3952 9.0585 0
C 15.6898 10.8308 0
C 15.3487 7.08926 0
C 12.6201 7.87696 0
N 13.6433 8.86159 0
C 15.0076 8.46774 0
C 16.0309 9.45235 0
C 10.5736 5.90772 0
C 10.2325 7.2862 0
C 12.9611 6.4985 0
C 11.2557 8.27081 0
C 10.9146 9.64928 0
C 8.86815 2.56002 0
C 8.86815 7.68004 0
C 13.3022 0 0
C 13.3022 10.2401 0
C 18.7596 3.54463 0
C 18.0774 1.18154 0
C 24.899 4.33233 0
C 23.5347 4.72618 0
C 22.5115 3.74156 0
C 22.8525 2.36309 0
C 20.1239 3.15078 0
C 23.1936 6.10465 0
C 25.2401 2.95387 0
C 20.806 5.51387 0
C 21.1471 4.13541 0
C 20.465 1.77231 0
C 18.4185 4.92311 0
C 25.9223 5.31696 0
C 25.5812 6.69542 0
C 21.8293 1.37846 0
C 19.4417 0.787696 0
C 25.9223 0.196916 0
C 24.2169 1.96924 0
C 24.558 0.59078 0
C 19.7828 14.7693 0
C 26.2634 14.1785 0
C 21.1471 14.3755 0
C 23.1936 11.2247 0
C 21.4882 12.997 0
C 19.1006 12.4062 0
C 18.7596 13.7847 0
C 18.4185 10.0431 0
C 18.0774 11.4216 0
C 23.8758 13.5878 0
C 20.806 10.6339 0
C 20.465 12.0124 0
C 23.5347 14.9662 0
C 25.5812 11.8155 0
C 22.8525 12.6032 0
C 25.2401 13.1939 0
C 26.2634 9.0585 0
C 24.558 10.8308 0
N 24.2169 7.08926 0
C 21.4882 7.87696 0
C 22.5115 8.86159 0
C 23.8758 8.46774 0
C 24.899 9.45235 0
C 19.4417 5.90772 0
C 19.1006 7.2862 0
C 21.8293 6.4985 0
C 20.1239 8.27081 0
C 19.7828 9.64928 0
N 17.7363 2.56002 0
C 17.7363 7.68004 0
C 22.1704 0 0
C 22.1704 10.2401 0
C 27.6277 3.54463 0
C 26.9455 1.18154 0
C 33.7672 4.33233 0
N 32.4029 4.72618 0
C 31.3796 3.74156 0
N 31.7207 2.36309 0
C 28.992 3.15078 0
C 32.0618 6.10465 0
C 34.1083 2.95387 0
C 29.6742 5.51387 0
C 30.0153 4.13541 0
C 29.3331 1.77231 0
C 27.2866 4.92311 0
C 34.7904 5.31696 0
C 34.4494 6.69542 0
C 30.6974 1.37846 0
C 28.3099 0.787696 0
C 34.7904 0.196916 0
C 33.085 1.96924 0
N 33.4261 0.59078 0
N 28.6509 14.7693 0
C 35.1315 14.1785 0
C 30.0153 14.3755 0
C 32.0618 11.2247 0
C 30.3564 12.997 0
C 27.9688 12.4062 0
C 27.6277 13.7847 0
C 27.2866 10.0431 0
C 26.9455 11.4216 0
C 32.7439 13.5878 0
C 29.6742 10.6339 0
C 29.3331 12.0124 0
C 32.4029 14.9662 0
C 34.4494 11.8155 0
C 31.7207 12.6032 0
C 34.1083 13.1939 0
C 35.1315 9.0585 0
N 33.4261 10.8308 0
C 33.085 7.08926 0
C 30.3564 7.87696 0
C 31.3796 8.86159 0
C 32.7439 8.46774 0
C 33.7672 9.45235 0
C 28.3099 5.90772 0
C 27.9688 7.2862 0
C 30.6974 6.4985 0
C 28.992 8.27081 0
N 28.6509 9.64928 0
C 26.6045 2.56002 0
C 26.6045 7.68004 0
C 31.0385 0 0
C 31.0385 10.2401 0
C 36.4959 3.54463 0
C 35.8137 1.18154 0
C 42.6353 4.33233 0
N 41.271 4.72618 0
C 40.2478 3.74156 0
C 40.5888 2.36309 0
C 37.8602 3.15078 0
C 40.9299 6.10465 0
C 42.9764 2.95387 0
C 38.5423 5.51387 0
C 38.8834 4.13541 0
C 38.2013 1.77231 0
C 36.1548 4.92311 0
C 43.6586 5.31696 0
C 43.3175 6.69542 0
C 39.5656 1.37846 0
C 37.178 0.787696 0
C 43.6586 0.196916 0
C 41.9532 1.96924 0
C 42.2943 0.59078 0
C 37.5191 14.7693 0
C 43.9997 14.1785 0
C 38.8834 14.3755 0
C 40.9299 11.2247 0
N 39.2245 12.997 0
C 36.8369 12.4062 0
C 36.4959 13.7847 0
C 36.1548 10.0431 0
C 35.8137 11.4216 0
C 41.6121 13.5878 0
C 38.5423 10.6339 0
C 38.2013 12.0124 0
C 41.271 14.9662 0
C 43.3175 11.8155 0
C 40.5888 12.6032 0
C 42.9764 13.1939 0
C 43.9997 9.0585 0
C 42.2943 10.8308 0
C 41.9532 7.08926 0
C 39.2245 7.87696 0
C 40.2478 8.86159 0
C 41.6121 8.46774 0
C 42.6353 9.45235 0
C 37.178 5.90772 0
C 36.8369 7.2862 0
C 39.5656 6.4985 0
C 37.8602 8.27081 0
C 37.5191 9.64928 0
C 35.4726 2.56002 0
C 35.4726 7.68004 0
C 39.9067 0 0
C 39.9067 10.2401 0
C 45.364 3.54463 0
C 44.6818 1.18154 0
C 51.5035 4.33233 0
C 50.1392 4.72618 0
C 49.1159 3.74156 0
C 49.457 2.36309 0
C 46.7283 3.15078 0
C 49.7981 6.10465 0
C 51.8446 2.95387 0
C 47.4105 5.51387 0
C 47.7516 4.13541 0
C 47.0694 1.77231 0
C 45.0229 4.92311 0
C 52.5267 5.31696 0
C 52.1857 6.69542 0
N 48.4337 1.37846 0
C 46.0462 0.787696 0
C 52.5267 0.196916 0
C 50.8213 1.96924 0
C 51.1624 0.59078 0
C 46.3872 14.7693 0
C 52.8678 14.1785 0
C 47.7516 14.3755 0
C 49.7981 11.2247 0
C 48.0927 12.997 0
C 45.7051 12.4062 0
N 45.364 13.7847 0
C 45.0229 10.0431 0
C 44.6818 11.4216 0
C 50.4802 13.5878 0
C 47.4105 10.6339 0
N 47.0694 12.0124 0
C 50.1392 14.9662 0
C 52.1857 11.8155 0
N 49.457 12.6032 0
C 51.8446 13.1939 0
C 52.8678 9.0585 0
C 51.1624 10.8308 0
C 50.8213 7.08926 0
C 48.0927 7.87696 0
C 49.1159 8.86159 0
C 50.4802 8.46774 0
C 51.5035 9.45235 0
N 46.0462 5.90772 0
C 45.7051 7.2862 0
C 48.4337 6.4985 0
C 46.7283 8.27081 0
C 46.3872 9.64928 0
C 44.3408 2.56002 0
C 44.3408 7.68004 0
C 48.7748 0 0
C 48.7748 10.2401 0
C 54.2322 3.54463 0
C 53.55 1.18154 0
C 60.3716 4.33233 0
C 59.0073 4.72618 0
N 57.9841 3.74156 0
C 58.3251 2.36309 0
C 55.5965 3.15078 0
C 58.6662 6.10465 0
C 60.7127 2.95387 0
C 56.2786 5.51387 0
C 56.6197 4.13541 0
C 55.9376 1.77231 0
C 53.8911 4.92311 0
N 61.3949 5.31696 0
C 61.0538 6.69542 0
C 57.3019 1.37846 0
C 54.9143 0.787696 0
C 61.3949 0.196916 0
C 59.6895 1.96924 0
C 60.0306 0.59078 0
C 55.2554 14.7693 0
C 61.736 14.1785 0
N 56.6197 14.3755 0
N 58.6662 11.2247 0
C 56.9608 12.997 0
C 54.5732 12.4062 0
C 54.2322 13.7847 0
C 53.8911 10.0431 0
C 53.55 11.4216 0
C 59.3484 13.5878 0
C 56.2786 10.6339 0
C 55.9376 12.0124 0
N 59.0073 14.9662 0
C 61.0538 11.8155 0
C 58.3251 12.6032 0
N 60.7127 13.1939 0
C 61.736 9.0585 0
C 60.0306 10.8308 0
C 59.6895 7.08926 0
C 56.9608 7.87696 0
C 57.9841 8.86159 0
C 59.3484 8.46774 0
C 60.3716 9.45235 0
C 54.9143 5.90772 0
C 54.5732 7.2862 0
C 57.3019 6.4985 0
C 55.5965 8.27081 0
C 55.2554 9.64928 0
C 53.2089 2.56002 0
C 53.2089 7.68004 0
C 57.643 0 0
N 57.643 10.2401 0
C 63.1003 3.54463 0
C 62.4181 1.18154 0
C 69.2398 4.33233 0
C 67.8755 4.72618 0
C 66.8522 3.74156 0
N 67.1933 2.36309 0
C 64.4646 3.15078 0
C 67.5344 6.10465 0
C 69.5809 2.95387 0
C 65.1468 5.51387 0
C 65.4879 4.13541 0
C 64.8057 1.77231 0
C 62.7592 4.92311 0
N 70.263 5.31696 0
C 69.922 6.69542 0
C 66.17 1.37846 0
C 63.7825 0.787696 0
C 70.263 0.196916 0
C 68.5576 1.96924 0
C 68.8987 0.59078 0
C 64.1235 14.7693 0
C 70.6041 14.1785 0
C 65.4879 14.3755 0
C 67.5344 11.2247 0
C 65.829 12.997 0
C 63.4414 12.4062 0
N 63.1003 13.7847 0
C 62.7592 10.0431 0
C 62.4181 11.4216 0
C 68.2165 13.5878 0
C 65.1468 10.6339 0
C 64.8057 12.0124 0
C 67.8755 14.9662 0
C 69.922 11.8155 0
C 67.1933 12.6032 0
C 69.5809 13.1939 0
C 70.6041 9.0585 0
C 68.8987 10.8308 0
C 68.5576 7.08926 0
C 65.829 7.87696 0
C 66.8522 8.86159 0
C 68.2165 8.46774 0
C 69.2398 9.45235 0
C 63.7825 5.90772 0
C 63.4414 7.2862 0
C 66.17 6.4985 0
C 64.4646 8.27081 0
C 64.1235 9.64928 0
C 62.0771 2.56002 0
C 62.0771 7.68004 0
C 66.5111 0 0
C 66.5111 10.2401 0
C 71.9685 3.54463 0
C 71.2863 1.18154 0
C 78.1079 4.33233 0
C 76.7436 4.72618 0
C 75.7204 3.74156 0
C 76.0614 2.36309 0
N 73.3328 3.15078 0
C 76.4025 6.10465 0
C 78.449 2.95387 0
C 74.0149 5.51387 0
C 74.356 4.13541 0
C 73.6739 1.77231 0
C 71.6274 4.92311 0
C 79.1312 5.31696 0
C 78.7901 6.69542 0
C 75.0382 1.37846 0
C 72.6506 0.787696 0
C 79.1312 0.196916 0
C 77.4258 1.96924 0
C 77.7669 0.59078 0
C 72.9917 14.7693 0
C 79.4723 14.1785 0
C 74.356 14.3755 0
C 76.4025 11.2247 0
C 74.6971 12.997 0
C 72.3095 12.4062 0
C 71.9685 13.7847 0
C 71.6274 10.0431 0
C 71.2863 11.4216 0
N 77.0847 13.5878 0
C 74.0149 10.6339 0
C 73.6739 12.0124 0
C 76.7436 14.9662 0
C 78.7901 11.8155 0
N 76.0614 12.6032 0
C 78.449 13.1939 0
C 79.4723 9.0585 0
C 77.7669 10.8308 0
C 77.4258 7.08926 0
C 74.6971 7.87696 0
C 75.7204 8.86159 0
C 77.0847 8.46774 0
C 78.1079 9.45235 0
C 72.6506 5.90772 0
C 72.3095 7.2862 0
C 75.0382 6.4985 0
C 73.3328 8.27081 0
C 72.9917 9.64928 0
C 70.9452 2.56002 0
N 70.9452 7.68004 0
C 75.3793 0 0
N 75.3793 10.2401 0
C 80.8366 3.54463 0
C 80.1544 1.18154 0
C 86.9761 4.33233 0
C 85.6118 4.72618 0
C 84.5885 3.74156 0
C 84.9296 2.36309 0
C 82.2009 3.15078 0
C 85.2707 6.10465 0
C 87.3172 2.95387 0
C 82.8831 5.51387 0
N 83.2242 4.13541 0
C 82.542 1.77231 0
C 80.4955 4.92311 0
C 87.9993 5.31696 0
C 87.6583 6.69542 0
C 83.9063 1.37846 0
C 81.5188 0.787696 0
C 87.9993 0.196916 0
N 86.2939 1.96924 0
C 86.635 0.59078 0
C 81.8598 14.7693 0
C 88.3404 14.1785 0
C 83.2242 14.3755 0
C 85.2707 11.2247 0
C 83.5653 12.997 0
C 81.1777 12.4062 0
C 80.8366 13.7847 0
N 80.4955 10.0431 0
C 80.1544 11.4216 0
C 85.9528 13.5878 0
C 82.8831 10.6339 0
C 82.542 12.0124 0
C 85.6118 14.9662 0
C 87.6583 11.8155 0
C 84.9296 12.6032 0
C 87.3172 13.1939 0
C 88.3404 9.0585 0
C 86.635 10.8308 0
N 86.2939 7.08926 0
C 83.5653 7.87696 0
C 84.5885 8.86159 0
C 85.9528 8.46774 0
C 86.9761 9.45235 0
C 81.5188 5.90772 0
C 81.1777 7.2862 0
C 83.9063 6.4985 0
C 82.2009 8.27081 0
C 81.8598 9.64928 0
C 79.8134 2.56002 0
N 79.8134 7.68004 0
C 84.2474 0 0
C 84.2474 10.2401 0
C 89.7048 3.54463 0
C 89.0226 1.18154 0
C 95.8442 4.33233 0
C 94.4799 4.72618 0
C 93.4567 3.74156 0
C 93.7977 2.36309 0
C 91.0691 3.15078 0
C 94.1388 6.10465 0
C 96.1853 2.95387 0
C 91.7513 5.51387 0
C 92.0923 4.13541 0
C 91.4102 1.77231 0
N 89.3637 4.92311 0
C 96.8675 5.31696 0
C 96.5264 6.69542 0
N 92.7745 1.37846 0
C 90.3869 0.787696 0
C 96.8675 0.196916 0
N 95.1621 1.96924 0
C 95.5032 0.59078 0
C 90.728 14.7693 0
N 97.2086 14.1785 0
N 92.0923 14.3755 0
C 94.1388 11.2247 0
C 92.4334 12.997 0
C 90.0458 12.4062 0
C 89.7048 13.7847 0
C 89.3637 10.0431 0
C 89.0226 11.4216 0
C 94.821 13.5878 0
C 91.7513 10.6339 0
C 91.4102 12.0124 0
C 94.4799 14.9662 0
C 96.5264 11.8155 0
C 93.7977 12.6032 0
C 96.1853 13.1939 0
C 97.2086 9.0585 0
C 95.5032 10.8308 0
N 95.1621 7.08926 0
C 92.4334 7.87696 0
N 93.4567 8.86159 0
C 94.821 8.46774 0
C 95.8442 9.45235 0
C 90.3869 5.90772 0
C 90.0458 7.2862 0
C 92.7745 6.4985 0
C 91.0691 8.27081 0
C 90.728 9.64928 0
C 88.6815 2.56002 0
C 88.6815 7.68004 0
C 93.1156 0 0
C 93.1156 10.2401 0
C 98.5729 3.54463 0
C 97.8907 1.18154 0
C 104.712 4.33233 0
C 103.348 4.72618 0
C 102.325 3.74156 0
C 102.666 2.36309 0
C 99.9372 3.15078 0
C 103.007 6.10465 0
C 105.053 2.95387 0
C 100.619 5.51387 0
C 100.96 4.13541 0
C 100.278 1.77231 0
C 98.2318 4.92311 0
C 105.736 5.31696 0
C 105.395 6.69542 0
C 101.643 1.37846 0
C 99.2551 0.787696 0
C 105.736 0.196916 0
C 104.03 1.96924 0
C 104.371 0.59078 0
C 99.5961 14.7693 0
C 106.077 14.1785 0
C 100.96 14.3755 0
C 103.007 11.2247 0
C 101.302 12.997 0
C 98.914 12.4062 0
C 98.5729 13.7847 0
C 98.2318 10.0431 0
N 97.8907 11.4216 0
C 103.689 13.5878 0
C 100.619 10.6339 0
C 100.278 12.0124 0
C 103.348 14.9662 0
C 105.395 11.8155 0
C 102.666 12.6032 0
C 105.053 13.1939 0
C 106.077 9.0585 0
C 104.371 10.8308 0
C 104.03 7.08926 0
C 101.302 7.87696 0
C 102.325 8.86159 0
C 103.689 8.46774 0
C 104.712 9.45235 0
C 99.2551 5.90772 0
C 98.914 7.2862 0
C 101.643 6.4985 0
C 99.9372 8.27081 0
C 99.5961 9.64928 0
C 97.5497 2.56002 0
C 97.5497 7.68004 0
C 101.984 0 0
C 101.984 10.2401 0
C 107.441 3.54463 0
C 106.759 1.18154 0
C 113.581 4.33233 0
N 112.216 4.72618 0
C 111.193 3.74156 0
C 111.534 2.36309 0
C 108.805 3.15078 0
C 111.875 6.10465 0
C 113.922 2.95387 0
C 109.488 5.51387 0
C 109.829 4.13541 0
C 109.146 1.77231 0
C 107.1 4.92311 0
C 114.604 5.31696 0
C 114.263 6.69542 0
C 110.511 1.37846 0
C 108.123 0.787696 0
C 114.604 0.196916 0
C 112.898 1.96924 0
N 113.239 0.59078 0
C 108.464 14.7693 0
C 114.945 14.1785 0
C 109.829 14.3755 0
C 111.875 11.2247 0
C 110.17 12.997 0
C 107.782 12.4062 0
C 107.441 13.7847 0
C 107.1 10.0431 0
C 106.759 11.4216 0
C 112.557 13.5878 0
C 109.488 10.6339 0
C 109.146 12.0124 0
C 112.216 14.9662 0
C 114.263 11.8155 0
C 111.534 12.6032 0
C 113.922 13.1939 0
C 114.945 9.0585 0
C 113.239 10.8308 0
C 112.898 7.08926 0
C 110.17 7.87696 0
C 111.193 8.86159 0
C 112.557 8.46774 0
C 113.581 9.45235 0
C 108.123 5.90772 0
C 107.782 7.2862 0
C 110.511 6.4985 0
C 108.805 8.27081 0
C 108.464 9.64928 0
C 106.418 2.56002 0
C 106.418 7.68004 0
C 110.852 0 0
C 110.852 10.2401 0
C 116.309 3.54463 0
N 115.627 1.18154 0
C 122.449 4.33233 0
C 121.084 4.72618 0
C 120.061 3.74156 0
C 120.402 2.36309 0
N 117.674 3.15078 0
C 120.743 6.10465 0
N 122.79 2.95387 0
C 118.356 5.51387 0
C 118.697 4.13541 0
C 118.015 1.77231 0
C 115.968 4.92311 0
C 123.472 5.31696 0
C 123.131 6.69542 0
C 119.379 1.37846 0
C 116.991 0.787696 0
C 123.472 0.196916 0
C 121.767 1.96924 0
C 122.108 0.59078 0
C 117.332 14.7693 0
C 123.813 14.1785 0
C 118.697 14.3755 0
C 120.743 11.2247 0
C 119.038 12.997 0
C 116.65 12.4062 0
C 116.309 13.7847 0
C 115.968 10.0431 0
N 115.627 11.4216 0
C 121.425 13.5878 0
C 118.356 10.6339 0
C 118.015 12.0124 0
C 121.084 14.9662 0
C 123.131 11.8155 0
C 120.402 12.6032 0
C 122.79 13.1939 0
C 123.813 9.0585 0
C 122.108 10.8308 0
C 121.767 7.08926 0
C 119.038 7.87696 0
C 120.061 8.86159 0
C 121.425 8.46774 0
C 122.449 9.45235 0
C 116.991 5.90772 0
C 116.65 7.2862 0
C 119.379 6.4985 0
C 117.674 8.27081 0
C 117.332 9.64928 0
C 115.286 2.56002 0
C 115.286 7.68004 0
C 119.72 0 0
C 119.72 10.2401 0
C 125.177 3.54463 0
C 124.495 1.18154 0
C 131.317 4.33233 0
N 129.953 4.72618 0
C 128.929 3.74156 0
C 129.27 2.36309 0
C 126.542 3.15078 0
C 129.611 6.10465 0
C 131.658 2.95387 0
C 127.224 5.51387 0
C 127.565 4.13541 0
C 126.883 1.77231 0
C 124.836 4.92311 0
C 132.34 5.31696 0
C 131.999 6.69542 0
C 128.247 1.37846 0
N 125.86 0.787696 0
C 132.34 0.196916 0
C 130.635 1.96924 0
N 130.976 0.59078 0
C 126.201 14.7693 0
C 132.681 14.1785 0
C 127.565 14.3755 0
N 129.611 11.2247 0
C 127.906 12.997 0
C 125.518 12.4062 0
N 125.177 13.7847 0
C 124.836 10.0431 0
N 124.495 11.4216 0
C 130.294 13.5878 0
C 127.224 10.6339 0
C 126.883 12.0124 0
C 129.953 14.9662 0
N 131.999 11.8155 0
C 129.27 12.6032 0
C 131.658 13.1939 0
C 132.681 9.0585 0
C 130.976 10.8308 0
C 130.635 7.08926 0
C 127.906 7.87696 0
C 128.929 8.86159 0
C 130.294 8.46774 0
N 131.317 9.45235 0
C 125.86 5.90772 0
C 125.518 7.2862 0
C 128.247 6.4985 0
C 126.542 8.27081 0
C 126.201 9.64928 0
C 124.154 2.56002 0
C 124.154 7.68004 0
C 128.588 0 0
C 128.588 10.2401 0
C 134.046 3.54463 0
C 133.363 1.18154 0
C 140.185 4.33233 0
C 138.821 4.72618 0
C 137.797 3.74156 0
C 138.138 2.36309 0
C 135.41 3.15078 0
C 138.48 6.10465 0
C 140.526 2.95387 0
C 136.092 5.51387 0
N 136.433 4.13541 0
C 135.751 1.77231 0
C 133.704 4.92311 0
C 141.208 5.31696 0
C 140.867 6.69542 0
C 137.115 1.37846 0
N 134.728 0.787696 0
C 141.208 0.196916 0
C 139.503 1.96924 0
C 139.844 0.59078 0
N 135.069 14.7693 0
C 141.549 14.1785 0
C 136.433 14.3755 0
C 138.48 11.2247 0
C 136.774 12.997 0
N 134.387 12.4062 0
C 134.046 13.7847 0
C 133.704 10.0431 0
C 133.363 11.4216 0
C 139.162 13.5878 0
C 136.092 10.6339 0
C 135.751 12.0124 0
C 138.821 14.9662 0
C 140.867 11.8155 0
C 138.138 12.6032 0
C 140.526 13.1939 0
C 141.549 9.0585 0
C 139.844 10.8308 0
C 139.503 7.08926 0
N 136.774 7.87696 0
C 137.797 8.86159 0
C 139.162 8.46774 0
C 140.185 9.45235 0
C 134.728 5.90772 0
C 134.387 7.2862 0
C 137.115 6.4985 0
C 135.41 8.27081 0
C 135.069 9.64928 0
C 133.022 2.56002 0
C 133.022 7.68004 0
C 137.456 0 0
C 137.456 10.2401 0
C 142.914 3.54463 0
C 142.231 1.18154 0
N 149.053 4.33233 0
C 147.689 4.72618 0
C 146.666 3.74156 0
C 147.007 2.36309 0
C 144.278 3.15078 0
C 147.348 6.10465 0
C 149.394 2.95387 0
C 144.96 5.51387 0
N 145.301 4.13541 0
N 144.619 1.77231 0
C 142.573 4.92311 0
C 150.076 5.31696 0
C 149.735 6.69542 0
C 145.983 1.37846 0
C 143.596 0.787696 0
C 150.076 0.196916 0
C 148.371 1.96924 0
C 148.712 0.59078 0
C 143.937 14.7693 0
N 150.417 14.1785 0
C 145.301 14.3755 0
C 147.348 11.2247 0
C 145.642 12.997 0
C 143.255 12.4062 0
C 142.914 13.7847 0
C 142.573 10.0431 0
C 142.231 11.4216 0
C 148.03 13.5878 0
C 144.96 10.6339 0
C 144.619 12.0124 0
C 147.689 14.9662 0
N 149.735 11.8155 0
C 147.007 12.6032 0
C 149.394 13.1939 0
C 150.417 9.0585 0
C 148.712 10.8308 0
C 148.371 7.08926 0
C 145.642 7.87696 0
C 146.666 8.86159 0
C 148.03 8.46774 0
C 149.053 9.45235 0
C 143.596 5.90772 0
C 143.255 7.2862 0
C 145.983 6.4985 0
C 144.278 8.27081 0
C 143.937 9.64928 0
C 141.89 2.56002 0
C 141.89 7.68004 0
C 146.324 0 0
C 146.324 10.2401 0
C 151.782 3.54463 0
C 151.1 1.18154 0
C 157.921 4.33233 0
C 156.557 4.72618 0
C 155.534 3.74156 0
C 155.875 2.36309 0
C 153.146 3.15078 0
C 156.216 6.10465 0
C 158.262 2.95387 0
C 153.828 5.51387 0
C 154.169 4.13541 0
C 153.487 1.77231 0
C 151.441 4.92311 0
C 158.945 5.31696 0
C 158.603 6.69542 0
C 154.852 1.37846 0
C 152.464 0.787696 0
C 158.945 0.196916 0
C 157.239 1.96924 0
N 157.58 0.59078 0
C 152.805 14.7693 0
C 159.286 14.1785 0
C 154.169 14.3755 0
C 156.216 11.2247 0
C 154.51 12.997 0
C 152.123 12.4062 0
C 151.782 13.7847 0
C 151.441 10.0431 0
C 151.1 11.4216 0
C 156.898 13.5878 0
C 153.828 10.6339 0
C 153.487 12.0124 0
C 156.557 14.9662 0
C 158.603 11.8155 0
C 155.875 12.6032 0
C 158.262 13.1939 0
N 159.286 9.0585 0
C 157.58 10.8308 0
C 157.239 7.08926 0
C 154.51 7.87696 0
C 155.534 8.86159 0
C 156.898 8.46774 0
C 157.921 9.45235 0
C 152.464 5.90772 0
C 152.123 7.2862 0
C 154.852 6.4985 0
C 153.146 8.27081 0
C 152.805 9.64928 0
C 150.759 2.56002 0
C 150.759 7.68004 0
C 155.193 0 0
C 155.193 10.2401 0
C 160.65 3.54463 0
C 159.968 1.18154 0
C 166.789 4.33233 0
C 165.425 4.72618 0
C 164.402 3.74156 0
C 164.743 2.36309 0
C 162.014 3.15078 0
C 165.084 6.10465 0
C 167.131 2.95387 0
C 162.696 5.51387 0
C 163.038 4.13541 0
C 162.355 1.77231 0
C 160.309 4.92311 0
C 167.813 5.31696 0
C 167.472 6.69542 0
C 163.72 1.37846 0
C 161.332 0.787696 0
C 167.813 0.196916 0
C 166.107 1.96924 0
C 166.448 0.59078 0
C 161.673 14.7693 0
C 168.154 14.1785 0
C 163.038 14.3755 0
C 165.084 11.2247 0
C 163.379 12.997 0
C 160.991 12.4062 0
C 160.65 13.7847 0
C 160.309 10.0431 0
C 159.968 11.4216 0
C 165.766 13.5878 0
C 162.696 10.6339 0
C 162.355 12.0124 0
C 165.425 14.9662 0
C 167.472 11.8155 0
C 164.743 12.6032 0
C 167.131 13.1939 0
C 168.154 9.0585 0
C 166.448 10.8308 0
C 166.107 7.08926 0
C 163.379 7.87696 0
C 164.402 8.86159 0
C 165.766 8.46774 0
C 166.789 9.45235 0
C 161.332 5.90772 0
C 160.991 7.2862 0
N 163.72 6.4985 0
C 162.014 8.27081 0
C 161.673 9.64928 0
C 159.627 2.56002 0
C 159.627 7.68004 0
C 164.061 0 0
C 164.061 10.2401 0
C 169.518 3.54463 0
C 168.836 1.18154 0
C 175.658 4.33233 0
C 174.293 4.72618 0
C 173.27 3.74156 0
C 173.611 2.36309 0
C 170.882 3.15078 0
C 173.952 6.10465 0
N 175.999 2.95387 0
C 171.565 5.51387 0
C 171.906 4.13541 0
C 171.224 1.77231 0
N 169.177 4.92311 0
C 176.681 5.31696 0
C 176.34 6.69542 0
C 172.588 1.37846 0
C 170.2 0.787696 0
C 176.681 0.196916 0
C 174.975 1.96924 0
C 175.317 0.59078 0
C 170.541 14.7693 0
C 177.022 14.1785 0
C 171.906 14.3755 0
C 173.952 11.2247 0
C 172.247 12.997 0
C 169.859 12.4062 0
N 169.518 13.7847 0
C 169.177 10.0431 0
C 168.836 11.4216 0
C 174.634 13.5878 0
C 171.565 10.6339 0
C 171.224 12.0124 0
C 174.293 14.9662 0
C 176.34 11.8155 0
C 173.611 12.6032 0
C 175.999 13.1939 0
C 177.022 9.0585 0
C 175.317 10.8308 0
C 174.975 7.08926 0
N 172.247 7.87696 0
C 173.27 8.86159 0
C 174.634 8.46774 0
C 175.658 9.45235 0
C 170.2 5.90772 0
C 169.859 7.2862 0
C 172.588 6.4985 0
C 170.882 8.27081 0
C 170.541 9.64928 0
C 168.495 2.56002 0
C 168.495 7.68004 0
C 172.929 0 0
C 172.929 10.2401 0
C 178.386 3.54463 0
C 177.704 1.18154 0
C 184.526 4.33233 0
N 183.161 4.72618 0
C 182.138 3.74156 0
C 182.479 2.36309 0
C 179.751 3.15078 0
C 182.82 6.10465 0
C 184.867 2.95387 0
C 180.433 5.51387 0
C 180.774 4.13541 0
C 180.092 1.77231 0
C 178.045 4.92311 0
C 185.549 5.31696 0
C 185.208 6.69542 0
C 181.456 1.37846 0
C 179.068 0.787696 0
C 185.549 0.196916 0
C 183.844 1.96924 0
N 184.185 0.59078 0
C 179.41 14.7693 0
C 185.89 14.1785 0
C 180.774 14.3755 0
C 182.82 11.2247 0
C 181.115 12.997 0
C 178.727 12.4062 0
C 178.386 13.7847 0
C 178.045 10.0431 0
C 177.704 11.4216 0
C 183.503 13.5878 0
C 180.433 10.6339 0
C 180.092 12.0124 0
C 183.161 14.9662 0
N 185.208 11.8155 0
C 182.479 12.6032 0
C 184.867 13.1939 0
C 185.89 9.0585 0
C 184.185 10.8308 0
C 183.844 7.08926 0
C 181.115 7.87696 0
C 182.138 8.86159 0
C 183.503 8.46774 0
C 184.526 9.45235 0
C 179.068 5.90772 0
C 178.727 7.2862 0
C 181.456 6.4985 0
C 179.751 8.27081 0
C 179.41 9.64928 0
C 177.363 2.56002 0
C 177.363 7.68004 0
C 181.797 0 0
N 181.797 10.2401 0
C 187.254 3.54463 0
C 186.572 1.18154 0
C 193.394 4.33233 0
C 192.03 4.72618 0
C 191.006 3.74156 0
C 191.347 2.36309 0
N 188.619 3.15078 0
C 191.688 6.10465 0
C 193.735 2.95387 0
C 189.301 5.51387 0
C 189.642 4.13541 0
C 188.96 1.77231 0
C 186.913 4.92311 0
C 194.417 5.31696 0
C 194.076 6.69542 0
C 190.324 1.37846 0
C 187.937 0.787696 0
C 194.417 0.196916 0
C 192.712 1.96924 0
C 193.053 0.59078 0
N 188.278 14.7693 0
C 194.758 14.1785 0
C 189.642 14.3755 0
C 191.688 11.2247 0
C 189.983 12.997 0
C 187.595 12.4062 0
C 187.254 13.7847 0
C 186.913 10.0431 0
C 186.572 11.4216 0
C 192.371 13.5878 0
C 189.301 10.6339 0
C 188.96 12.0124 0
C 192.03 14.9662 0
C 194.076 11.8155 0
C 191.347 12.6032 0
C 193.735 13.1939 0
N 194.758 9.0585 0
C 193.053 10.8308 0
C 192.712 7.08926 0
C 189.983 7.87696 0
C 191.006 8.86159 0
C 192.371 8.46774 0
C 193.394 9.45235 0
C 187.937 5.90772 0
C 187.595 7.2862 0
C 190.324 6.4985 0
C 188.619 8.27081 0
C 188.278 9.64928 0
C 186.231 2.56002 0
C 186.231 7.68004 0
C 190.665 0 0
C 190.665 10.2401 0
1144
Atoms. Timestep: 1
C 1.02325 3.54463 0
C 0.341087 1.18154 0
C 7.16273 4.33233 0
C 5.7984 4.72618 0
C 4.77515 3.74156 0
C 5.11624 2.36309 0
C 2.38758 3.15078 0
C 5.45733 6.10465 0
C 7.50382 2.95387 0
C 3.06975 5.51387 0
C 3.41082 4.13541 0
C 2.72866 1.77231 0
C 0.682165 4.92311 0
C 8.18599 5.31696 0
N 7.8449 6.69542 0
C 4.09299 1.37846 0
C 1.70542 0.787696 0
C 8.18599 0.196916 0
C 6.48057 1.96924 0
C 6.82166 0.59078 0
C 2.04649 14.7693 0
N 8.52706 14.1785 0
C 3.41082 14.3755 0
C 5.45733 11.2247 0
N 3.75191 12.997 0
C 1.36433 12.4062 0
C 1.02325 13.7847 0
C 0.682165 10.0431 0
C 0.341087 11.4216 0
C 6.13949 13.5878 0
C 3.06975 10.6339 0
C 2.72866 12.0124 0
C 5.7984 14.9662 0
C 7.8449 11.8155 0
C 5.11624 12.6032 0
C 7.50382 13.1939 0
C 8.52706 9.0585 0
C 6.82166 10.8308 0
C 6.48057 7.08926 0
C 3.75191 7.87696 0
C 4.77515 8.86159 0
C 6.13949 8.46774 0
C 7.16273 9.45235 0
C 1.70542 5.90772 0
C 1.36433 7.2862 0
C 4.09299 6.4985 0
C 2.38758 8.27081 0
N 2.04649 9.64928 0
C 0 2.56002 0
C 0 7.68004 0
C 4.43408 0 0
C 4.43408 10.2401 0
C 9.8914 3.54463 0
C 9.20924 1.18154 0
C 16.0309 4.33233 0
C 14.6666 4.72618 0
C 13.6433 3.74156 0
C 13.9844 2.36309 0
C 11.2557 3.15078 0
C 14.3255 6.10465 0
C 16.372 2.95387 0
C 11.9379 5.51387 0
C 12.279 4.13541 0
C 11.5968 1.77231 0
C 9.55032 4.92311 0
C 17.0541 5.31696 0
C 16.713 6.69542 0
C 12.9611 1.37846 0
C 10.5736 0.787696 0
C 17.0541 0.196916 0
C 15.3487 1.96924 0
C 15.6898 0.59078 0
C 10.9146 14.7693 0
C 17.3952 14.1785 0
C 12.279 14.3755 0
C 14.3255 11.2247 0
N 12.6201 12.997 0
C 10.2325 12.4062 0
C 9.8914 13.7847 0
C 9.55032 10.0431 0
C 9.20924 11.4216 0
C 15.0076 13.5878 0
C 11.9379 10.6339 0
C 11.5968 12.0124 0
C 14.6666 14.9662 0
C 16.713 11.8155 0
C 13.9844 12.6032 0
N 16.372 13.1939 0
C 17.3952 9.0585 0
C 15.6898 10.8308 0
C 15.3487 7.08926 0
C 12.6201 7.87696 0
C 13.6433 8.86159 0
C 15.0076 8.46774 0
C 16.0309 9.45235 0
C 10.5736 5.90772 0
C 10.2325 7.2862 0
C 12.9611 6.4985 0
C 11.2557 8.27081 0
N 10.9146 9.64928 0
C 8.86815 2.56002 0
C 8.86815 7.68004 0
C 13.3022 0 0
C 13.3022 10.2401 0
C 18.7596 3.54463 0
C 18.0774 1.18154 0
C 24.899 4.33233 0
C 23.5347 4.72618 0
C 22.5115 3.74156 0
C 22.8525 2.36309 0
C 20.1239 3.15078 0
C 23.1936 6.10465 0
C 25.2401 2.95387 0
C 20.806 5.51387 0
C 21.1471 4.13541 0
C 20.465 1.77231 0
C 18.4185 4.92311 0
C 25.9223 5.31696 0
C 25.5812 6.69542 0
C 21.8293 1.37846 0
C 19.4417 0.787696 0
C 25.9223 0.196916 0
C 24.2169 1.96924 0
C 24.558 0.59078 0
C 19.7828 14.7693 0
C 26.2634 14.1785 0
C 21.1471 14.3755 0
C 23.1936 11.2247 0
C 21.4882 12.997 0
C 19.1006 12.4062 0
C 18.7596 13.7847 0
C 18.4185 10.0431 0
C 18.0774 11.4216 0
C 23.8758 13.5878 0
C 20.806 10.6339 0
C 20.465 12.0124 0
C 23.5347 14.9662 0
C 25.5812 11.8155 0
C 22.8525 12.6032 0
C 25.2401 13.1939 0
C 26.2634 9.0585 0
C 24.558 10.8308 0
N 24.2169 7.08926 0
C 21.4882 7.87696 0
C 22.5115 8.86159 0
C 23.8758 8.46774 0
C 24.899 9.45235 0
C 19.4417 5.90772 0
C 19.1006 7.2862 0
C 21.8293 6.4985 0
C 20.1239 8.27081 0
C 19.7828 9.64928 0
N 17.7363 2.56002 0
C 17.7363 7.68004 0
C 22.1704 0 0
C 22.1704 10.2401 0
C 27.6277 3.54463 0
C 26.9455 1.18154 0
C 33.7672 4.33233 0
N 32.4029 4.72618 0
C 31.3796 3.74156 0
C 31.7207 2.36309 0
C 28.992 3.15078 0
C 32.0618 6.10465 0
C 34.1083 2.95387 0
C 29.6742 5.51387 0
C 30.0153 4.13541 0
C 29.3331 1.77231 0
C 27.2866 4.92311 0
C 34.7904 5.31696 0
C 34.4494 6.69542 0
C 30.6974 1.37846 0
C 28.3099 0.787696 0
C 34.7904 0.196916 0
C 33.085 1.96924 0
N 33.4261 0.59078 0
N 28.6509 14.7693 0
C 35.1315 14.1785 0
C 30.0153 14.3755 0
C 32.0618 11.2247 0
C 30.3564 12.997 0
C 27.9688 12.4062 0
C 27.6277 13.7847 0
C 27.2866 10.0431 0
C 26.9455 11.4216 0
C 32.7439 13.5878 0
N 29.6742 10.6339 0
C 29.3331 12.0124 0
C 32.4029 14.9662 0
C 34.4494 11.8155 0
C 31.7207 12.6032 0
C 34.1083 13.1939 0
C 35.1315 9.0585 0
C 33.4261 10.8308 0
C 33.085 7.08926 0
C 30.3564 7.87696 0
C 31.3796 8.86159 0
C 32.7439 8.46774 0
C 33.7672 9.45235 0
C 28.3099 5.90772 0
C 27.9688 7.2862 0
C 30.6974 6.4985 0
C 28.992 8.27081 0
C 28.6509 9.64928 0
N 26.6045 2.56002 0
C 26.6045 7.68004 0
C 31.0385 0 0
C 31.0385 10.2401 0
C 36.4959 3.54463 0
C 35.8137 1.18154 0
C 42.6353 4.33233 0
C 41.271 4.72618 0
C 40.2478 3.74156 0
C 40.5888 2.36309 0
C 37.8602 3.15078 0
C 40.9299 6.10465 0
C 42.9764 2.95387 0
C 38.5423 5.51387 0
C 38.8834 4.13541 0
C 38.2013 1.77231 0
C 36.1548 4.92311 0
C 43.6586 5.31696 0
C 43.3175 6.69542 0
N 39.5656 1.37846 0
C 37.178 0.787696 0
C 43.6586 0.196916 0
C 41.9532 1.96924 0
C 42.2943 0.59078 0
C 37.5191 14.7693 0
C 43.9997 14.1785 0
C 38.8834 14.3755 0
C 40.9299 11.2247 0
C 39.2245 12.997 0
C 36.8369 12.4062 0
C 36.4959 13.7847 0
C 36.1548 10.0431 0
C 35.8137 11.4216 0
C 41.6121 13.5878 0
C 38.5423 10.6339 0
C 38.2013 12.0124 0
C 41.271 14.9662 0
N 43.3175 11.8155 0
C 40.5888 12.6032 0
C 42.9764 13.1939 0
C 43.9997 9.0585 0
C 42.2943 10.8308 0
C 41.9532 7.08926 0
C 39.2245 7.87696 0
C 40.2478 8.86159 0
C 41.6121 8.46774 0
C 42.6353 9.45235 0
C 37.178 5.90772 0
C 36.8369 7.2862 0
C 39.5656 6.4985 0
C 37.8602 8.27081 0
C 37.5191 9.64928 0
C 35.4726 2.56002 0
C 35.4726 7.68004 0
C 39.9067 0 0
C 39.9067 10.2401 0
C 45.364 3.54463 0
C 44.6818 1.18154 0
C 51.5035 4.33233 0
C 50.1392 4.72618 0
C 49.1159 3.74156 0
C 49.457 2.36309 0
C 46.7283 3.15078 0
C 49.7981 6.10465 0
C 51.8446 2.95387 0
C 47.4105 5.51387 0
C 47.7516 4.13541 0
C 47.0694 1.77231 0
C 45.0229 4.92311 0
C 52.5267 5.31696 0
C 52.1857 6.69542 0
N 48.4337 1.37846 0
C 46.0462 0.787696 0
C 52.5267 0.196916 0
C 50.8213 1.96924 0
C 51.1624 0.59078 0
C 46.3872 14.7693 0
C 52.8678 14.1785 0
C 47.7516 14.3755 0
C 49.7981 11.2247 0
C 48.0927 12.997 0
C 45.7051 12.4062 0
N 45.364 13.7847 0
C 45.0229 10.0431 0
C 44.6818 11.4216 0
C 50.4802 13.5878 0
C 47.4105 10.6339 0
C 47.0694 12.0124 0
C 50.1392 14.9662 0
C 52.1857 11.8155 0
C 49.457 12.6032 0
C 51.8446 13.1939 0
C 52.8678 9.0585 0
C 51.1624 10.8308 0
C 50.8213 7.08926 0
C 48.0927 7.87696 0
C 49.1159 8.86159 0
C 50.4802 8.46774 0
C 51.5035 9.45235 0
C 46.0462 5.90772 0
C 45.7051 7.2862 0
C 48.4337 6.4985 0
C 46.7283 8.27081 0
C 46.3872 9.64928 0
C 44.3408 2.56002 0
C 44.3408 7.68004 0
C 48.7748 0 0
C 48.7748 10.2401 0
C 54.2322 3.54463 0
C 53.55 1.18154 0
C 60.3716 4.33233 0
C 59.0073 4.72618 0
N 57.9841 3.74156 0
C 58.3251 2.36309 0
C 55.5965 3.15078 0
C 58.6662 6.10465 0
C 60.7127 2.95387 0
N 56.2786 5.51387 0
C 56.6197 4.13541 0
C 55.9376 1.77231 0
C 53.8911 4.92311 0
C 61.3949 5.31696 0
C 61.0538 6.69542 0
C 57.3019 1.37846 0
C 54.9143 0.787696 0
C 61.3949 0.196916 0
C 59.6895 1.96924 0
C 60.0306 0.59078 0
C 55.2554 14.7693 0
C 61.736 14.1785 0
N 56.6197 14.3755 0
N 58.6662 11.2247 0
C 56.9608 12.997 0
C 54.5732 12.4062 0
C 54.2322 13.7847 0
C 53.8911 10.0431 0
C 53.55 11.4216 0
C 59.3484 13.5878 0
C 56.2786 10.6339 0
N 55.9376 12.0124 0
N 59.0073 14.9662 0
C 61.0538 11.8155 0
C 58.3251 12.6032 0
C 60.7127 13.1939 0
C 61.736 9.0585 0
C 60.0306 10.8308 0
C 59.6895 7.08926 0
C 56.9608 7.87696 0
C 57.9841 8.86159 0
C 59.3484 8.46774 0
C 60.3716 9.45235 0
N 54.9143 5.90772 0
C 54.5732 7.2862 0
C 57.3019 6.4985 0
C 55.5965 8.27081 0
C 55.2554 9.64928 0
C 53.2089 2.56002 0
C 53.2089 7.68004 0
C 57.643 0 0
C 57.643 10.2401 0
C 63.1003 3.54463 0
C 62.4181 1.18154 0
C 69.2398 4.33233 0
C 67.8755 4.72618 0
C 66.8522 3.74156 0
C 67.1933 2.36309 0
C 64.4646 3.15078 0
C 67.5344 6.10465 0
C 69.5809 2.95387 0
C 65.1468 5.51387 0