# USER_LATT cell with dimension 22 x 1 x 1 and a = 1
      1144  atoms
         2  atom types

 0.   195.09930966147161  xlo xhi
 0.    15.36008712978600  ylo yhi
 0.   100.00000000000000  zlo zhi

Masses

1 12.0112
2 14.0067

Atoms

1 1     1.02325153842222     3.54463194685359     0.00000000000000
2 1     0.34108680219089     1.18154398228453     0.00000000000000
3 2     7.16273416450424     4.33232793504327     0.00000000000000
4 1     5.79840469204157     4.72617592913811     0.00000000000000
5 1     4.77515315361935     3.74156362394457     0.00000000000000
6 1     5.11623995581023     2.36308796456906     0.00000000000000
7 1     2.38758101088489     3.15078395275874     0.00000000000000
8 1     5.45732675800112     6.10465158851363     0.00000000000000
9 1     7.50382096669513     2.95386763575489     0.00000000000000
10 1     3.06974574711623     5.51387191732780     0.00000000000000
11 1     3.41082368115668     4.13541161803941     0.00000000000000
12 1     2.72865894492534     1.77230829338323     0.00000000000000
13 1     0.68216473623134     4.92310760622910     0.00000000000000
14 1     8.18598570292646     5.31695560032394     0.00000000000000
15 1     7.84489890073558     6.69541589961233     0.00000000000000
16 1     4.09298841738801     1.37846029928839     0.00000000000000
17 1     1.70541627465356     0.78769598818969     0.00000000000000
18 1     8.18598570292646     0.19691631700386     0.00000000000000
19 1     6.48056942827291     1.96923997047421     0.00000000000000
20 1     6.82165623046379     0.59077967118583     0.00000000000000
21 1     2.04649420869401    14.76930745860017     0.00000000000000
22 1     8.52706363696691    14.17854314750147     0.00000000000000
23 1     3.41082368115668    14.37545946450533     0.00000000000000
24 1     5.45732675800112    11.22467551174659     0.00000000000000
25 1     3.75191048334756    12.99699916521694     0.00000000000000
26 2     1.36432947246267    12.40621949403111     0.00000000000000
27 1     1.02325153842222    13.78469515340663     0.00000000000000
28 1     0.68216473623134    10.04313152946206     0.00000000000000
29 1     0.34108680219089    11.42160718883757     0.00000000000000
30 1     6.13949149423246    13.58776347631564     0.00000000000000
31 1     3.06974574711623    10.63389584056076     0.00000000000000
32 1     2.72865894492534    12.01237149993627     0.00000000000000
33 1     5.79840469204157    14.96623913569116     0.00000000000000
34 1     7.84489890073558    11.81545518293242     0.00000000000000
35 1     5.11623995581023    12.60315117112210     0.00000000000000
36 1     7.50382096669513    13.19391548222080     0.00000000000000
37 1     8.52706363696691     9.05850386418139     0.00000000000000
38 1     6.82165623046379    10.83082751765174     0.00000000000000
39 2     6.48056942827291     7.08926389370717     0.00000000000000
40 1     3.75191048334756     7.87695988189686     0.00000000000000
41 1     4.77515315361935     8.86158754717753     0.00000000000000
42 1     6.13949149423246     8.46773955308269     0.00000000000000
43 1     7.16273416450424     9.45235185827623     0.00000000000000
44 1     1.70541627465356     5.90771991142264     0.00000000000000
45 1     1.36432947246267     7.28619557079816     0.00000000000000
46 1     4.09298841738801     6.49849958260847     0.00000000000000
47 1     2.38758101088489     8.27080787599170     0.00000000000000
48 2     2.04649420869401     9.64928353536721     0.00000000000000
49 1     0.00000000000000     2.56001964166004     0.00000000000000
50 1     0.00000000000000     7.68004356489300     0.00000000000000
51 1     4.43407521957890     0.00000000000000     0.00000000000000
52 1     4.43407521957890    10.24006320655304     0.00000000000000
53 1     9.89140197758002     3.54463194685359     0.00000000000000
54 1     9.20923724134869     1.18154398228453     0.00000000000000
55 1    16.03088460366204     4.33232793504327     0.00000000000000
56 1    14.66655513119937     4.72617592913811     0.00000000000000
57 1    13.64330359277715     3.74156362394457     0.00000000000000
58 1    13.98439039496803     2.36308796456906     0.00000000000000
59 1    11.25573145004269     3.15078395275874     0.00000000000000
60 1    14.32547719715892     6.10465158851363     0.00000000000000
61 1    16.37197140585293     2.95386763575489     0.00000000000000
62 1    11.93789618627403     5.51387191732780     0.00000000000000
63 1    12.27897412031448     4.13541161803941     0.00000000000000
64 1    11.59680938408314     1.77230829338323     0.00000000000000
65 1     9.55031517538914     4.92310760622910     0.00000000000000
66 1    17.05413614208426     5.31695560032394     0.00000000000000
67 1    16.71304933989338     6.69541589961233     0.00000000000000
68 1    12.96113885654581     1.37846029928839     0.00000000000000
69 1    10.57356671381136     0.78769598818969     0.00000000000000
70 1    17.05413614208426     0.19691631700386     0.00000000000000
71 1    15.34871986743071     1.96923997047421     0.00000000000000
72 1    15.68980666962159     0.59077967118583     0.00000000000000
73 1    10.91464464785181    14.76930745860017     0.00000000000000
74 1    17.39521407612471    14.17854314750147     0.00000000000000
75 1    12.27897412031448    14.37545946450533     0.00000000000000
76 1    14.32547719715892    11.22467551174659     0.00000000000000
77 2    12.62006092250536    12.99699916521694     0.00000000000000
78 1    10.23247991162047    12.40621949403111     0.00000000000000
79 1     9.89140197758002    13.78469515340663     0.00000000000000
80 1     9.55031517538914    10.04313152946206     0.00000000000000
81 1     9.20923724134869    11.42160718883757     0.00000000000000
82 1    15.00764193339026    13.58776347631564     0.00000000000000
83 1    11.93789618627403    10.63389584056076     0.00000000000000
84 1    11.59680938408314    12.01237149993627     0.00000000000000
85 1    14.66655513119937    14.96623913569116     0.00000000000000
86 1    16.71304933989338    11.81545518293242     0.00000000000000
87 1    13.98439039496803    12.60315117112210     0.00000000000000
88 2    16.37197140585293    13.19391548222080     0.00000000000000
89 1    17.39521407612471     9.05850386418139     0.00000000000000
90 1    15.68980666962159    10.83082751765174     0.00000000000000
91 1    15.34871986743071     7.08926389370717     0.00000000000000
92 1    12.62006092250536     7.87695988189686     0.00000000000000
93 2    13.64330359277715     8.86158754717753     0.00000000000000
94 1    15.00764193339026     8.46773955308269     0.00000000000000
95 1    16.03088460366204     9.45235185827623     0.00000000000000
96 1    10.57356671381136     5.90771991142264     0.00000000000000
97 1    10.23247991162047     7.28619557079816     0.00000000000000
98 1    12.96113885654581     6.49849958260847     0.00000000000000
99 1    11.25573145004269     8.27080787599170     0.00000000000000
100 1    10.91464464785181     9.64928353536721     0.00000000000000
101 1     8.86815043915780     2.56001964166004     0.00000000000000
102 1     8.86815043915780     7.68004356489300     0.00000000000000
103 1    13.30222565873670     0.00000000000000     0.00000000000000
104 1    13.30222565873670    10.24006320655304     0.00000000000000
105 1    18.75955241673782     3.54463194685359     0.00000000000000
106 1    18.07738768050649     1.18154398228453     0.00000000000000
107 1    24.89903504281984     4.33232793504327     0.00000000000000
108 1    23.53470557035717     4.72617592913811     0.00000000000000
109 1    22.51145403193495     3.74156362394457     0.00000000000000
110 1    22.85254083412583     2.36308796456906     0.00000000000000
111 1    20.12388188920049     3.15078395275874     0.00000000000000
112 1    23.19362763631672     6.10465158851363     0.00000000000000
113 1    25.24012184501073     2.95386763575489     0.00000000000000
114 1    20.80604662543183     5.51387191732780     0.00000000000000
115 1    21.14712455947228     4.13541161803941     0.00000000000000
116 1    20.46495982324094     1.77230829338323     0.00000000000000
117 1    18.41846561454694     4.92310760622910     0.00000000000000
118 1    25.92228658124207     5.31695560032394     0.00000000000000
119 1    25.58119977905118     6.69541589961233     0.00000000000000
120 1    21.82928929570361     1.37846029928839     0.00000000000000
121 1    19.44171715296916     0.78769598818969     0.00000000000000
122 1    25.92228658124207     0.19691631700386     0.00000000000000
123 1    24.21687030658851     1.96923997047421     0.00000000000000
124 1    24.55795710877939     0.59077967118583     0.00000000000000
125 1    19.78279508700961    14.76930745860017     0.00000000000000
126 1    26.26336451528251    14.17854314750147     0.00000000000000
127 1    21.14712455947228    14.37545946450533     0.00000000000000
128 1    23.19362763631672    11.22467551174659     0.00000000000000
129 1    21.48821136166316    12.99699916521694     0.00000000000000
130 1    19.10063035077827    12.40621949403111     0.00000000000000
131 1    18.75955241673782    13.78469515340663     0.00000000000000
132 1    18.41846561454694    10.04313152946206     0.00000000000000
133 1    18.07738768050649    11.42160718883757     0.00000000000000
134 1    23.87579237254806    13.58776347631564     0.00000000000000
135 1    20.80604662543183    10.63389584056076     0.00000000000000
136 1    20.46495982324094    12.01237149993627     0.00000000000000
137 1    23.53470557035717    14.96623913569116     0.00000000000000
138 1    25.58119977905118    11.81545518293242     0.00000000000000
139 1    22.85254083412583    12.60315117112210     0.00000000000000
140 1    25.24012184501073    13.19391548222080     0.00000000000000
141 1    26.26336451528251     9.05850386418139     0.00000000000000
142 1    24.55795710877939    10.83082751765174     0.00000000000000
143 2    24.21687030658851     7.08926389370717     0.00000000000000
144 1    21.48821136166316     7.87695988189686     0.00000000000000
145 1    22.51145403193495     8.86158754717753     0.00000000000000
146 1    23.87579237254806     8.46773955308269     0.00000000000000
147 1    24.89903504281984     9.45235185827623     0.00000000000000
148 1    19.44171715296916     5.90771991142264     0.00000000000000
149 1    19.10063035077827     7.28619557079816     0.00000000000000
150 1    21.82928929570361     6.49849958260847     0.00000000000000
151 1    20.12388188920049     8.27080787599170     0.00000000000000
152 1    19.78279508700961     9.64928353536721     0.00000000000000
153 2    17.73630087831560     2.56001964166004     0.00000000000000
154 1    17.73630087831560     7.68004356489300     0.00000000000000
155 1    22.17037609789450     0.00000000000000     0.00000000000000
156 1    22.17037609789450    10.24006320655304     0.00000000000000
157 1    27.62770285589562     3.54463194685359     0.00000000000000
158 1    26.94553811966429     1.18154398228453     0.00000000000000
159 1    33.76718548197764     4.33232793504327     0.00000000000000
160 2    32.40285600951497     4.72617592913811     0.00000000000000
161 1    31.37960447109275     3.74156362394457     0.00000000000000
162 2    31.72069127328363     2.36308796456906     0.00000000000000
163 1    28.99203232835829     3.15078395275874     0.00000000000000
164 1    32.06177807547452     6.10465158851363     0.00000000000000
165 1    34.10827228416853     2.95386763575489     0.00000000000000
166 1    29.67419706458963     5.51387191732780     0.00000000000000
167 1    30.01527499863008     4.13541161803941     0.00000000000000
168 1    29.33311026239874     1.77230829338323     0.00000000000000
169 1    27.28661605370473     4.92310760622910     0.00000000000000
170 1    34.79043702039986     5.31695560032394     0.00000000000000
171 1    34.44935021820898     6.69541589961233     0.00000000000000
172 1    30.69743973486141     1.37846029928839     0.00000000000000
173 1    28.30986759212696     0.78769598818969     0.00000000000000
174 1    34.79043702039986     0.19691631700386     0.00000000000000
175 1    33.08502074574631     1.96923997047421     0.00000000000000
176 2    33.42610754793719     0.59077967118583     0.00000000000000
177 2    28.65094552616740    14.76930745860017     0.00000000000000
178 1    35.13151495444031    14.17854314750147     0.00000000000000
179 1    30.01527499863008    14.37545946450533     0.00000000000000
180 1    32.06177807547452    11.22467551174659     0.00000000000000
181 1    30.35636180082097    12.99699916521694     0.00000000000000
182 1    27.96878078993607    12.40621949403111     0.00000000000000
183 1    27.62770285589562    13.78469515340663     0.00000000000000
184 1    27.28661605370473    10.04313152946206     0.00000000000000
185 1    26.94553811966429    11.42160718883757     0.00000000000000
186 1    32.74394281170586    13.58776347631564     0.00000000000000
187 1    29.67419706458963    10.63389584056076     0.00000000000000
188 1    29.33311026239874    12.01237149993627     0.00000000000000
189 1    32.40285600951497    14.96623913569116     0.00000000000000
190 1    34.44935021820898    11.81545518293242     0.00000000000000
191 1    31.72069127328363    12.60315117112210     0.00000000000000
192 1    34.10827228416853    13.19391548222080     0.00000000000000
193 1    35.13151495444031     9.05850386418139     0.00000000000000
194 2    33.42610754793719    10.83082751765174     0.00000000000000
195 1    33.08502074574631     7.08926389370717     0.00000000000000
196 1    30.35636180082097     7.87695988189686     0.00000000000000
197 1    31.37960447109275     8.86158754717753     0.00000000000000
198 1    32.74394281170586     8.46773955308269     0.00000000000000
199 1    33.76718548197764     9.45235185827623     0.00000000000000
200 1    28.30986759212696     5.90771991142264     0.00000000000000
201 1    27.96878078993607     7.28619557079816     0.00000000000000
202 1    30.69743973486141     6.49849958260847     0.00000000000000
203 1    28.99203232835829     8.27080787599170     0.00000000000000
204 2    28.65094552616740     9.64928353536721     0.00000000000000
205 1    26.60445131747340     2.56001964166004     0.00000000000000
206 1    26.60445131747340     7.68004356489300     0.00000000000000
207 1    31.03852653705230     0.00000000000000     0.00000000000000
208 1    31.03852653705230    10.24006320655304     0.00000000000000
209 1    36.49585329505342     3.54463194685359     0.00000000000000
210 1    35.81368855882209     1.18154398228453     0.00000000000000
211 1    42.63533592113544     4.33232793504327     0.00000000000000
212 2    41.27100644867276     4.72617592913811     0.00000000000000
213 1    40.24775491025055     3.74156362394457     0.00000000000000
214 1    40.58884171244144     2.36308796456906     0.00000000000000
215 1    37.86018276751609     3.15078395275874     0.00000000000000
216 1    40.92992851463232     6.10465158851363     0.00000000000000
217 1    42.97642272332633     2.95386763575489     0.00000000000000
218 1    38.54234750374743     5.51387191732780     0.00000000000000
219 1    38.88342543778788     4.13541161803941     0.00000000000000
220 1    38.20126070155654     1.77230829338323     0.00000000000000
221 1    36.15476649286254     4.92310760622910     0.00000000000000
222 1    43.65858745955767     5.31695560032394     0.00000000000000
223 1    43.31750065736678     6.69541589961233     0.00000000000000
224 1    39.56559017401921     1.37846029928839     0.00000000000000
225 1    37.17801803128476     0.78769598818969     0.00000000000000
226 1    43.65858745955767     0.19691631700386     0.00000000000000
227 1    41.95317118490411     1.96923997047421     0.00000000000000
228 1    42.29425798709499     0.59077967118583     0.00000000000000
229 1    37.51909596532521    14.76930745860017     0.00000000000000
230 1    43.99966539359811    14.17854314750147     0.00000000000000
231 1    38.88342543778788    14.37545946450533     0.00000000000000
232 1    40.92992851463232    11.22467551174659     0.00000000000000
233 2    39.22451223997876    12.99699916521694     0.00000000000000
234 1    36.83693122909387    12.40621949403111     0.00000000000000
235 1    36.49585329505342    13.78469515340663     0.00000000000000
236 1    36.15476649286254    10.04313152946206     0.00000000000000
237 1    35.81368855882209    11.42160718883757     0.00000000000000
238 1    41.61209325086366    13.58776347631564     0.00000000000000
239 1    38.54234750374743    10.63389584056076     0.00000000000000
240 1    38.20126070155654    12.01237149993627     0.00000000000000
241 1    41.27100644867276    14.96623913569116     0.00000000000000
242 1    43.31750065736678    11.81545518293242     0.00000000000000
243 1    40.58884171244144    12.60315117112210     0.00000000000000
244 1    42.97642272332633    13.19391548222080     0.00000000000000
245 1    43.99966539359811     9.05850386418139     0.00000000000000
246 1    42.29425798709499    10.83082751765174     0.00000000000000
247 1    41.95317118490411     7.08926389370717     0.00000000000000
248 1    39.22451223997876     7.87695988189686     0.00000000000000
249 1    40.24775491025055     8.86158754717753     0.00000000000000
250 1    41.61209325086366     8.46773955308269     0.00000000000000
251 1    42.63533592113544     9.45235185827623     0.00000000000000
252 1    37.17801803128476     5.90771991142264     0.00000000000000
253 1    36.83693122909387     7.28619557079816     0.00000000000000
254 1    39.56559017401921     6.49849958260847     0.00000000000000
255 1    37.86018276751609     8.27080787599170     0.00000000000000
256 1    37.51909596532521     9.64928353536721     0.00000000000000
257 1    35.47260175663120     2.56001964166004     0.00000000000000
258 1    35.47260175663120     7.68004356489300     0.00000000000000
259 1    39.90667697621010     0.00000000000000     0.00000000000000
260 1    39.90667697621010    10.24006320655304     0.00000000000000
261 1    45.36400373421122     3.54463194685359     0.00000000000000
262 1    44.68183899797989     1.18154398228453     0.00000000000000
263 1    51.50348636029324     4.33232793504327     0.00000000000000
264 1    50.13915688783057     4.72617592913811     0.00000000000000
265 1    49.11590534940834     3.74156362394457     0.00000000000000
266 1    49.45699215159923     2.36308796456906     0.00000000000000
267 1    46.72833320667389     3.15078395275874     0.00000000000000
268 1    49.79807895379012     6.10465158851363     0.00000000000000
269 1    51.84457316248413     2.95386763575489     0.00000000000000
270 1    47.41049794290523     5.51387191732780     0.00000000000000
271 1    47.75157587694568     4.13541161803941     0.00000000000000
272 1    47.06941114071434     1.77230829338323     0.00000000000000
273 1    45.02291693202034     4.92310760622910     0.00000000000000
274 1    52.52673789871547     5.31695560032394     0.00000000000000
275 1    52.18565109652458     6.69541589961233     0.00000000000000
276 2    48.43374061317702     1.37846029928839     0.00000000000000
277 1    46.04616847044255     0.78769598818969     0.00000000000000
278 1    52.52673789871547     0.19691631700386     0.00000000000000
279 1    50.82132162406191     1.96923997047421     0.00000000000000
280 1    51.16240842625279     0.59077967118583     0.00000000000000
281 1    46.38724640448301    14.76930745860017     0.00000000000000
282 1    52.86781583275591    14.17854314750147     0.00000000000000
283 1    47.75157587694568    14.37545946450533     0.00000000000000
284 1    49.79807895379012    11.22467551174659     0.00000000000000
285 1    48.09266267913657    12.99699916521694     0.00000000000000
286 1    45.70508166825167    12.40621949403111     0.00000000000000
287 2    45.36400373421122    13.78469515340663     0.00000000000000
288 1    45.02291693202034    10.04313152946206     0.00000000000000
289 1    44.68183899797989    11.42160718883757     0.00000000000000
290 1    50.48024369002145    13.58776347631564     0.00000000000000
291 1    47.41049794290523    10.63389584056076     0.00000000000000
292 2    47.06941114071434    12.01237149993627     0.00000000000000
293 1    50.13915688783057    14.96623913569116     0.00000000000000
294 1    52.18565109652458    11.81545518293242     0.00000000000000
295 2    49.45699215159923    12.60315117112210     0.00000000000000
296 1    51.84457316248413    13.19391548222080     0.00000000000000
297 1    52.86781583275591     9.05850386418139     0.00000000000000
298 1    51.16240842625279    10.83082751765174     0.00000000000000
299 1    50.82132162406191     7.08926389370717     0.00000000000000
300 1    48.09266267913657     7.87695988189686     0.00000000000000
301 1    49.11590534940834     8.86158754717753     0.00000000000000
302 1    50.48024369002145     8.46773955308269     0.00000000000000
303 1    51.50348636029324     9.45235185827623     0.00000000000000
304 2    46.04616847044255     5.90771991142264     0.00000000000000
305 1    45.70508166825167     7.28619557079816     0.00000000000000
306 1    48.43374061317702     6.49849958260847     0.00000000000000
307 1    46.72833320667389     8.27080787599170     0.00000000000000
308 1    46.38724640448301     9.64928353536721     0.00000000000000
309 1    44.34075219578900     2.56001964166004     0.00000000000000
310 1    44.34075219578900     7.68004356489300     0.00000000000000
311 1    48.77482741536790     0.00000000000000     0.00000000000000
312 1    48.77482741536790    10.24006320655304     0.00000000000000
313 1    54.23215417336902     3.54463194685359     0.00000000000000
314 1    53.54998943713769     1.18154398228453     0.00000000000000
315 1    60.37163679945105     4.33232793504327     0.00000000000000
316 1    59.00730732698837     4.72617592913811     0.00000000000000
317 2    57.98405578856615     3.74156362394457     0.00000000000000
318 1    58.32514259075703     2.36308796456906     0.00000000000000
319 1    55.59648364583169     3.15078395275874     0.00000000000000
320 1    58.66622939294792     6.10465158851363     0.00000000000000
321 1    60.71272360164193     2.95386763575489     0.00000000000000
322 1    56.27864838206303     5.51387191732780     0.00000000000000
323 1    56.61972631610348     4.13541161803941     0.00000000000000
324 1    55.93756157987215     1.77230829338323     0.00000000000000
325 1    53.89106737117813     4.92310760622910     0.00000000000000
326 2    61.39488833787326     5.31695560032394     0.00000000000000
327 1    61.05380153568237     6.69541589961233     0.00000000000000
328 1    57.30189105233481     1.37846029928839     0.00000000000000
329 1    54.91431890960035     0.78769598818969     0.00000000000000
330 1    61.39488833787326     0.19691631700386     0.00000000000000
331 1    59.68947206321971     1.96923997047421     0.00000000000000
332 1    60.03055886541059     0.59077967118583     0.00000000000000
333 1    55.25539684364081    14.76930745860017     0.00000000000000
334 1    61.73596627191371    14.17854314750147     0.00000000000000
335 2    56.61972631610348    14.37545946450533     0.00000000000000
336 2    58.66622939294792    11.22467551174659     0.00000000000000
337 1    56.96081311829437    12.99699916521694     0.00000000000000
338 1    54.57323210740947    12.40621949403111     0.00000000000000
339 1    54.23215417336902    13.78469515340663     0.00000000000000
340 1    53.89106737117813    10.04313152946206     0.00000000000000
341 1    53.54998943713769    11.42160718883757     0.00000000000000
342 1    59.34839412917925    13.58776347631564     0.00000000000000
343 1    56.27864838206303    10.63389584056076     0.00000000000000
344 1    55.93756157987215    12.01237149993627     0.00000000000000
345 2    59.00730732698837    14.96623913569116     0.00000000000000
346 1    61.05380153568237    11.81545518293242     0.00000000000000
347 1    58.32514259075703    12.60315117112210     0.00000000000000
348 2    60.71272360164193    13.19391548222080     0.00000000000000
349 1    61.73596627191371     9.05850386418139     0.00000000000000
350 1    60.03055886541059    10.83082751765174     0.00000000000000
351 1    59.68947206321971     7.08926389370717     0.00000000000000
352 1    56.96081311829437     7.87695988189686     0.00000000000000
353 1    57.98405578856615     8.86158754717753     0.00000000000000
354 1    59.34839412917925     8.46773955308269     0.00000000000000
355 1    60.37163679945105     9.45235185827623     0.00000000000000
356 1    54.91431890960035     5.90771991142264     0.00000000000000
357 1    54.57323210740947     7.28619557079816     0.00000000000000
358 1    57.30189105233481     6.49849958260847     0.00000000000000
359 1    55.59648364583169     8.27080787599170     0.00000000000000
360 1    55.25539684364081     9.64928353536721     0.00000000000000
361 1    53.20890263494680     2.56001964166004     0.00000000000000
362 1    53.20890263494680     7.68004356489300     0.00000000000000
363 1    57.64297785452570     0.00000000000000     0.00000000000000
364 2    57.64297785452570    10.24006320655304     0.00000000000000
365 1    63.10030461252682     3.54463194685359     0.00000000000000
366 1    62.41813987629548     1.18154398228453     0.00000000000000
367 1    69.23978723860884     4.33232793504327     0.00000000000000
368 1    67.87545776614617     4.72617592913811     0.00000000000000
369 1    66.85220622772394     3.74156362394457     0.00000000000000
370 2    67.19329302991483     2.36308796456906     0.00000000000000
371 1    64.46463408498948     3.15078395275874     0.00000000000000
372 1    67.53437983210571     6.10465158851363     0.00000000000000
373 1    69.58087404079973     2.95386763575489     0.00000000000000
374 1    65.14679882122083     5.51387191732780     0.00000000000000
375 1    65.48787675526128     4.13541161803941     0.00000000000000
376 1    64.80571201902994     1.77230829338323     0.00000000000000
377 1    62.75921781033593     4.92310760622910     0.00000000000000
378 2    70.26303877703107     5.31695560032394     0.00000000000000
379 1    69.92195197484018     6.69541589961233     0.00000000000000
380 1    66.17004149149261     1.37846029928839     0.00000000000000
381 1    63.78246934875816     0.78769598818969     0.00000000000000
382 1    70.26303877703107     0.19691631700386     0.00000000000000
383 1    68.55762250237751     1.96923997047421     0.00000000000000
384 1    68.89870930456838     0.59077967118583     0.00000000000000
385 1    64.12354728279861    14.76930745860017     0.00000000000000
386 1    70.60411671107151    14.17854314750147     0.00000000000000
387 1    65.48787675526128    14.37545946450533     0.00000000000000
388 1    67.53437983210571    11.22467551174659     0.00000000000000
389 1    65.82896355745217    12.99699916521694     0.00000000000000
390 1    63.44138254656727    12.40621949403111     0.00000000000000
391 2    63.10030461252682    13.78469515340663     0.00000000000000
392 1    62.75921781033593    10.04313152946206     0.00000000000000
393 1    62.41813987629548    11.42160718883757     0.00000000000000
394 1    68.21654456833706    13.58776347631564     0.00000000000000
395 1    65.14679882122083    10.63389584056076     0.00000000000000
396 1    64.80571201902994    12.01237149993627     0.00000000000000
397 1    67.87545776614617    14.96623913569116     0.00000000000000
398 1    69.92195197484018    11.81545518293242     0.00000000000000
399 1    67.19329302991483    12.60315117112210     0.00000000000000
400 1    69.58087404079973    13.19391548222080     0.00000000000000
401 1    70.60411671107151     9.05850386418139     0.00000000000000
402 1    68.89870930456838    10.83082751765174     0.00000000000000
403 1    68.55762250237751     7.08926389370717     0.00000000000000
404 1    65.82896355745217     7.87695988189686     0.00000000000000
405 1    66.85220622772394     8.86158754717753     0.00000000000000
406 1    68.21654456833706     8.46773955308269     0.00000000000000
407 1    69.23978723860884     9.45235185827623     0.00000000000000
408 1    63.78246934875816     5.90771991142264     0.00000000000000
409 1    63.44138254656727     7.28619557079816     0.00000000000000
410 1    66.17004149149261     6.49849958260847     0.00000000000000
411 1    64.46463408498948     8.27080787599170     0.00000000000000
412 1    64.12354728279861     9.64928353536721     0.00000000000000
413 1    62.07705307410460     2.56001964166004     0.00000000000000
414 1    62.07705307410460     7.68004356489300     0.00000000000000
415 1    66.51112829368350     0.00000000000000     0.00000000000000
416 1    66.51112829368350    10.24006320655304     0.00000000000000
417 1    71.96845505168461     3.54463194685359     0.00000000000000
418 1    71.28629031545330     1.18154398228453     0.00000000000000
419 1    78.10793767776664     4.33232793504327     0.00000000000000
420 1    76.74360820530397     4.72617592913811     0.00000000000000
421 1    75.72035666688174     3.74156362394457     0.00000000000000
422 1    76.06144346907264     2.36308796456906     0.00000000000000
423 2    73.33278452414729     3.15078395275874     0.00000000000000
424 1    76.40253027126352     6.10465158851363     0.00000000000000
425 1    78.44902447995753     2.95386763575489     0.00000000000000
426 1    74.01494926037863     5.51387191732780     0.00000000000000
427 1    74.35602719441908     4.13541161803941     0.00000000000000
428 1    73.67386245818774     1.77230829338323     0.00000000000000
429 1    71.62736824949374     4.92310760622910     0.00000000000000
430 1    79.13118921618886     5.31695560032394     0.00000000000000
431 1    78.79010241399797     6.69541589961233     0.00000000000000
432 1    75.03819193065041     1.37846029928839     0.00000000000000