# Graphite cell with dimension 5 x 5 x 5 and a = 2.46
      1000  atoms
         1  atom types

 0.    12.30000000000000  xlo xhi
 0.    21.30422493309719  ylo yhi
 0.    33.50520000000000  zlo zhi

Masses

1 12.0112

Atoms

1 1     0.00000000000000     0.00000000000000     0.00000000000000
2 1     0.00000000000000     1.42028166220648     0.00000000000000
3 1     1.23000000000000     2.13042249330972     0.00000000000000
4 1     1.23000000000000     3.55070415551620     0.00000000000000
5 1     0.00000000000000     0.00000000000000     3.35052000000000
6 1     0.00000000000000     2.84056332441296     3.35052000000000
7 1     1.23000000000000     2.13042249330972     3.35052000000000
8 1     1.23000000000000     0.71014083110324     3.35052000000000
9 1     2.46000000000000     0.00000000000000     0.00000000000000
10 1     2.46000000000000     1.42028166220648     0.00000000000000
11 1     3.69000000000000     2.13042249330972     0.00000000000000
12 1     3.69000000000000     3.55070415551620     0.00000000000000
13 1     2.46000000000000     0.00000000000000     3.35052000000000
14 1     2.46000000000000     2.84056332441296     3.35052000000000
15 1     3.69000000000000     2.13042249330972     3.35052000000000
16 1     3.69000000000000     0.71014083110324     3.35052000000000
17 1     4.92000000000000     0.00000000000000     0.00000000000000
18 1     4.92000000000000     1.42028166220648     0.00000000000000
19 1     6.15000000000000     2.13042249330972     0.00000000000000
20 1     6.15000000000000     3.55070415551620     0.00000000000000
21 1     4.92000000000000     0.00000000000000     3.35052000000000
22 1     4.92000000000000     2.84056332441296     3.35052000000000
23 1     6.15000000000000     2.13042249330972     3.35052000000000
24 1     6.15000000000000     0.71014083110324     3.35052000000000
25 1     7.38000000000000     0.00000000000000     0.00000000000000
26 1     7.38000000000000     1.42028166220648     0.00000000000000
27 1     8.61000000000000     2.13042249330972     0.00000000000000
28 1     8.61000000000000     3.55070415551620     0.00000000000000
29 1     7.38000000000000     0.00000000000000     3.35052000000000
30 1     7.38000000000000     2.84056332441296     3.35052000000000
31 1     8.61000000000000     2.13042249330972     3.35052000000000
32 1     8.61000000000000     0.71014083110324     3.35052000000000
33 1     9.84000000000000     0.00000000000000     0.00000000000000
34 1     9.84000000000000     1.42028166220648     0.00000000000000
35 1    11.07000000000000     2.13042249330972     0.00000000000000
36 1    11.07000000000000     3.55070415551620     0.00000000000000
37 1     9.84000000000000     0.00000000000000     3.35052000000000
38 1     9.84000000000000     2.84056332441296     3.35052000000000
39 1    11.07000000000000     2.13042249330972     3.35052000000000
40 1    11.07000000000000     0.71014083110324     3.35052000000000
41 1     0.00000000000000     4.26084498661944     0.00000000000000
42 1     0.00000000000000     5.68112664882592     0.00000000000000
43 1     1.23000000000000     6.39126747992916     0.00000000000000
44 1     1.23000000000000     7.81154914213564     0.00000000000000
45 1     0.00000000000000     4.26084498661944     3.35052000000000
46 1     0.00000000000000     7.10140831103240     3.35052000000000
47 1     1.23000000000000     6.39126747992916     3.35052000000000
48 1     1.23000000000000     4.97098581772268     3.35052000000000
49 1     2.46000000000000     4.26084498661944     0.00000000000000
50 1     2.46000000000000     5.68112664882592     0.00000000000000
51 1     3.69000000000000     6.39126747992916     0.00000000000000
52 1     3.69000000000000     7.81154914213564     0.00000000000000
53 1     2.46000000000000     4.26084498661944     3.35052000000000
54 1     2.46000000000000     7.10140831103240     3.35052000000000
55 1     3.69000000000000     6.39126747992916     3.35052000000000
56 1     3.69000000000000     4.97098581772268     3.35052000000000
57 1     4.92000000000000     4.26084498661944     0.00000000000000
58 1     4.92000000000000     5.68112664882592     0.00000000000000
59 1     6.15000000000000     6.39126747992916     0.00000000000000
60 1     6.15000000000000     7.81154914213564     0.00000000000000
61 1     4.92000000000000     4.26084498661944     3.35052000000000
62 1     4.92000000000000     7.10140831103240     3.35052000000000
63 1     6.15000000000000     6.39126747992916     3.35052000000000
64 1     6.15000000000000     4.97098581772268     3.35052000000000
65 1     7.38000000000000     4.26084498661944     0.00000000000000
66 1     7.38000000000000     5.68112664882592     0.00000000000000
67 1     8.61000000000000     6.39126747992916     0.00000000000000
68 1     8.61000000000000     7.81154914213564     0.00000000000000
69 1     7.38000000000000     4.26084498661944     3.35052000000000
70 1     7.38000000000000     7.10140831103240     3.35052000000000
71 1     8.61000000000000     6.39126747992916     3.35052000000000
72 1     8.61000000000000     4.97098581772268     3.35052000000000
73 1     9.84000000000000     4.26084498661944     0.00000000000000
74 1     9.84000000000000     5.68112664882592     0.00000000000000
75 1    11.07000000000000     6.39126747992916     0.00000000000000
76 1    11.07000000000000     7.81154914213564     0.00000000000000
77 1     9.84000000000000     4.26084498661944     3.35052000000000
78 1     9.84000000000000     7.10140831103240     3.35052000000000
79 1    11.07000000000000     6.39126747992916     3.35052000000000
80 1    11.07000000000000     4.97098581772268     3.35052000000000
81 1     0.00000000000000     8.52168997323888     0.00000000000000
82 1     0.00000000000000     9.94197163544536     0.00000000000000
83 1     1.23000000000000    10.65211246654860     0.00000000000000
84 1     1.23000000000000    12.07239412875508     0.00000000000000
85 1     0.00000000000000     8.52168997323888     3.35052000000000
86 1     0.00000000000000    11.36225329765183     3.35052000000000
87 1     1.23000000000000    10.65211246654860     3.35052000000000
88 1     1.23000000000000     9.23183080434212     3.35052000000000
89 1     2.46000000000000     8.52168997323888     0.00000000000000
90 1     2.46000000000000     9.94197163544536     0.00000000000000
91 1     3.69000000000000    10.65211246654860     0.00000000000000
92 1     3.69000000000000    12.07239412875508     0.00000000000000
93 1     2.46000000000000     8.52168997323888     3.35052000000000
94 1     2.46000000000000    11.36225329765183     3.35052000000000
95 1     3.69000000000000    10.65211246654860     3.35052000000000
96 1     3.69000000000000     9.23183080434212     3.35052000000000
97 1     4.92000000000000     8.52168997323888     0.00000000000000
98 1     4.92000000000000     9.94197163544536     0.00000000000000
99 1     6.15000000000000    10.65211246654860     0.00000000000000
100 1     6.15000000000000    12.07239412875508     0.00000000000000
101 1     4.92000000000000     8.52168997323888     3.35052000000000
102 1     4.92000000000000    11.36225329765183     3.35052000000000
103 1     6.15000000000000    10.65211246654860     3.35052000000000
104 1     6.15000000000000     9.23183080434212     3.35052000000000
105 1     7.38000000000000     8.52168997323888     0.00000000000000
106 1     7.38000000000000     9.94197163544536     0.00000000000000
107 1     8.61000000000000    10.65211246654860     0.00000000000000
108 1     8.61000000000000    12.07239412875508     0.00000000000000
109 1     7.38000000000000     8.52168997323888     3.35052000000000
110 1     7.38000000000000    11.36225329765183     3.35052000000000
111 1     8.61000000000000    10.65211246654860     3.35052000000000
112 1     8.61000000000000     9.23183080434212     3.35052000000000
113 1     9.84000000000000     8.52168997323888     0.00000000000000
114 1     9.84000000000000     9.94197163544536     0.00000000000000
115 1    11.07000000000000    10.65211246654860     0.00000000000000
116 1    11.07000000000000    12.07239412875508     0.00000000000000
117 1     9.84000000000000     8.52168997323888     3.35052000000000
118 1     9.84000000000000    11.36225329765183     3.35052000000000
119 1    11.07000000000000    10.65211246654860     3.35052000000000
120 1    11.07000000000000     9.23183080434212     3.35052000000000
121 1     0.00000000000000    12.78253495985831     0.00000000000000
122 1     0.00000000000000    14.20281662206479     0.00000000000000
123 1     1.23000000000000    14.91295745316803     0.00000000000000
124 1     1.23000000000000    16.33323911537451     0.00000000000000
125 1     0.00000000000000    12.78253495985831     3.35052000000000
126 1     0.00000000000000    15.62309828427127     3.35052000000000
127 1     1.23000000000000    14.91295745316803     3.35052000000000
128 1     1.23000000000000    13.49267579096155     3.35052000000000
129 1     2.46000000000000    12.78253495985831     0.00000000000000
130 1     2.46000000000000    14.20281662206479     0.00000000000000
131 1     3.69000000000000    14.91295745316803     0.00000000000000
132 1     3.69000000000000    16.33323911537451     0.00000000000000
133 1     2.46000000000000    12.78253495985831     3.35052000000000
134 1     2.46000000000000    15.62309828427127     3.35052000000000
135 1     3.69000000000000    14.91295745316803     3.35052000000000
136 1     3.69000000000000    13.49267579096155     3.35052000000000
137 1     4.92000000000000    12.78253495985831     0.00000000000000
138 1     4.92000000000000    14.20281662206479     0.00000000000000
139 1     6.15000000000000    14.91295745316803     0.00000000000000
140 1     6.15000000000000    16.33323911537451     0.00000000000000
141 1     4.92000000000000    12.78253495985831     3.35052000000000
142 1     4.92000000000000    15.62309828427127     3.35052000000000
143 1     6.15000000000000    14.91295745316803     3.35052000000000
144 1     6.15000000000000    13.49267579096155     3.35052000000000
145 1     7.38000000000000    12.78253495985831     0.00000000000000
146 1     7.38000000000000    14.20281662206479     0.00000000000000
147 1     8.61000000000000    14.91295745316803     0.00000000000000
148 1     8.61000000000000    16.33323911537451     0.00000000000000
149 1     7.38000000000000    12.78253495985831     3.35052000000000
150 1     7.38000000000000    15.62309828427127     3.35052000000000
151 1     8.61000000000000    14.91295745316803     3.35052000000000
152 1     8.61000000000000    13.49267579096155     3.35052000000000
153 1     9.84000000000000    12.78253495985831     0.00000000000000
154 1     9.84000000000000    14.20281662206479     0.00000000000000
155 1    11.07000000000000    14.91295745316803     0.00000000000000
156 1    11.07000000000000    16.33323911537451     0.00000000000000
157 1     9.84000000000000    12.78253495985831     3.35052000000000
158 1     9.84000000000000    15.62309828427127     3.35052000000000
159 1    11.07000000000000    14.91295745316803     3.35052000000000
160 1    11.07000000000000    13.49267579096155     3.35052000000000
161 1     0.00000000000000    17.04337994647775     0.00000000000000
162 1     0.00000000000000    18.46366160868423     0.00000000000000
163 1     1.23000000000000    19.17380243978747     0.00000000000000
164 1     1.23000000000000    20.59408410199395     0.00000000000000
165 1     0.00000000000000    17.04337994647775     3.35052000000000
166 1     0.00000000000000    19.88394327089071     3.35052000000000
167 1     1.23000000000000    19.17380243978747     3.35052000000000
168 1     1.23000000000000    17.75352077758100     3.35052000000000
169 1     2.46000000000000    17.04337994647775     0.00000000000000
170 1     2.46000000000000    18.46366160868423     0.00000000000000
171 1     3.69000000000000    19.17380243978747     0.00000000000000
172 1     3.69000000000000    20.59408410199395     0.00000000000000
173 1     2.46000000000000    17.04337994647775     3.35052000000000
174 1     2.46000000000000    19.88394327089071     3.35052000000000
175 1     3.69000000000000    19.17380243978747     3.35052000000000
176 1     3.69000000000000    17.75352077758100     3.35052000000000
177 1     4.92000000000000    17.04337994647775     0.00000000000000
178 1     4.92000000000000    18.46366160868423     0.00000000000000
179 1     6.15000000000000    19.17380243978747     0.00000000000000
180 1     6.15000000000000    20.59408410199395     0.00000000000000
181 1     4.92000000000000    17.04337994647775     3.35052000000000
182 1     4.92000000000000    19.88394327089071     3.35052000000000
183 1     6.15000000000000    19.17380243978747     3.35052000000000
184 1     6.15000000000000    17.75352077758100     3.35052000000000
185 1     7.38000000000000    17.04337994647775     0.00000000000000
186 1     7.38000000000000    18.46366160868423     0.00000000000000
187 1     8.61000000000000    19.17380243978747     0.00000000000000
188 1     8.61000000000000    20.59408410199395     0.00000000000000
189 1     7.38000000000000    17.04337994647775     3.35052000000000
190 1     7.38000000000000    19.88394327089071     3.35052000000000
191 1     8.61000000000000    19.17380243978747     3.35052000000000
192 1     8.61000000000000    17.75352077758100     3.35052000000000
193 1     9.84000000000000    17.04337994647775     0.00000000000000
194 1     9.84000000000000    18.46366160868423     0.00000000000000
195 1    11.07000000000000    19.17380243978747     0.00000000000000
196 1    11.07000000000000    20.59408410199395     0.00000000000000
197 1     9.84000000000000    17.04337994647775     3.35052000000000
198 1     9.84000000000000    19.88394327089071     3.35052000000000
199 1    11.07000000000000    19.17380243978747     3.35052000000000
200 1    11.07000000000000    17.75352077758100     3.35052000000000
201 1     0.00000000000000     0.00000000000000     6.70104000000000
202 1     0.00000000000000     1.42028166220648     6.70104000000000
203 1     1.23000000000000     2.13042249330972     6.70104000000000
204 1     1.23000000000000     3.55070415551620     6.70104000000000
205 1     0.00000000000000     0.00000000000000    10.05156000000000
206 1     0.00000000000000     2.84056332441296    10.05156000000000
207 1     1.23000000000000     2.13042249330972    10.05156000000000
208 1     1.23000000000000     0.71014083110324    10.05156000000000
209 1     2.46000000000000     0.00000000000000     6.70104000000000
210 1     2.46000000000000     1.42028166220648     6.70104000000000
211 1     3.69000000000000     2.13042249330972     6.70104000000000
212 1     3.69000000000000     3.55070415551620     6.70104000000000
213 1     2.46000000000000     0.00000000000000    10.05156000000000
214 1     2.46000000000000     2.84056332441296    10.05156000000000
215 1     3.69000000000000     2.13042249330972    10.05156000000000
216 1     3.69000000000000     0.71014083110324    10.05156000000000
217 1     4.92000000000000     0.00000000000000     6.70104000000000
218 1     4.92000000000000     1.42028166220648     6.70104000000000
219 1     6.15000000000000     2.13042249330972     6.70104000000000
220 1     6.15000000000000     3.55070415551620     6.70104000000000
221 1     4.92000000000000     0.00000000000000    10.05156000000000
222 1     4.92000000000000     2.84056332441296    10.05156000000000
223 1     6.15000000000000     2.13042249330972    10.05156000000000
224 1     6.15000000000000     0.71014083110324    10.05156000000000
225 1     7.38000000000000     0.00000000000000     6.70104000000000
226 1     7.38000000000000     1.42028166220648     6.70104000000000
227 1     8.61000000000000     2.13042249330972     6.70104000000000
228 1     8.61000000000000     3.55070415551620     6.70104000000000
229 1     7.38000000000000     0.00000000000000    10.05156000000000
230 1     7.38000000000000     2.84056332441296    10.05156000000000
231 1     8.61000000000000     2.13042249330972    10.05156000000000
232 1     8.61000000000000     0.71014083110324    10.05156000000000
233 1     9.84000000000000     0.00000000000000     6.70104000000000
234 1     9.84000000000000     1.42028166220648     6.70104000000000
235 1    11.07000000000000     2.13042249330972     6.70104000000000
236 1    11.07000000000000     3.55070415551620     6.70104000000000
237 1     9.84000000000000     0.00000000000000    10.05156000000000
238 1     9.84000000000000     2.84056332441296    10.05156000000000
239 1    11.07000000000000     2.13042249330972    10.05156000000000
240 1    11.07000000000000     0.71014083110324    10.05156000000000
241 1     0.00000000000000     4.26084498661944     6.70104000000000
242 1     0.00000000000000     5.68112664882592     6.70104000000000
243 1     1.23000000000000     6.39126747992916     6.70104000000000
244 1     1.23000000000000     7.81154914213564     6.70104000000000
245 1     0.00000000000000     4.26084498661944    10.05156000000000
246 1     0.00000000000000     7.10140831103240    10.05156000000000
247 1     1.23000000000000     6.39126747992916    10.05156000000000
248 1     1.23000000000000     4.97098581772268    10.05156000000000
249 1     2.46000000000000     4.26084498661944     6.70104000000000
250 1     2.46000000000000     5.68112664882592     6.70104000000000
251 1     3.69000000000000     6.39126747992916     6.70104000000000
252 1     3.69000000000000     7.81154914213564     6.70104000000000
253 1     2.46000000000000     4.26084498661944    10.05156000000000
254 1     2.46000000000000     7.10140831103240    10.05156000000000
255 1     3.69000000000000     6.39126747992916    10.05156000000000
256 1     3.69000000000000     4.97098581772268    10.05156000000000
257 1     4.92000000000000     4.26084498661944     6.70104000000000
258 1     4.92000000000000     5.68112664882592     6.70104000000000
259 1     6.15000000000000     6.39126747992916     6.70104000000000
260 1     6.15000000000000     7.81154914213564     6.70104000000000
261 1     4.92000000000000     4.26084498661944    10.05156000000000
262 1     4.92000000000000     7.10140831103240    10.05156000000000
263 1     6.15000000000000     6.39126747992916    10.05156000000000
264 1     6.15000000000000     4.97098581772268    10.05156000000000
265 1     7.38000000000000     4.26084498661944     6.70104000000000
266 1     7.38000000000000     5.68112664882592     6.70104000000000
267 1     8.61000000000000     6.39126747992916     6.70104000000000
268 1     8.61000000000000     7.81154914213564     6.70104000000000
269 1     7.38000000000000     4.26084498661944    10.05156000000000
270 1     7.38000000000000     7.10140831103240    10.05156000000000
271 1     8.61000000000000     6.39126747992916    10.05156000000000
272 1     8.61000000000000     4.97098581772268    10.05156000000000
273 1     9.84000000000000     4.26084498661944     6.70104000000000
274 1     9.84000000000000     5.68112664882592     6.70104000000000
275 1    11.07000000000000     6.39126747992916     6.70104000000000
276 1    11.07000000000000     7.81154914213564     6.70104000000000
277 1     9.84000000000000     4.26084498661944    10.05156000000000
278 1     9.84000000000000     7.10140831103240    10.05156000000000
279 1    11.07000000000000     6.39126747992916    10.05156000000000
280 1    11.07000000000000     4.97098581772268    10.05156000000000
281 1     0.00000000000000     8.52168997323888     6.70104000000000
282 1     0.00000000000000     9.94197163544536     6.70104000000000
283 1     1.23000000000000    10.65211246654860     6.70104000000000
284 1     1.23000000000000    12.07239412875508     6.70104000000000
285 1     0.00000000000000     8.52168997323888    10.05156000000000
286 1     0.00000000000000    11.36225329765183    10.05156000000000
287 1     1.23000000000000    10.65211246654860    10.05156000000000
288 1     1.23000000000000     9.23183080434212    10.05156000000000
289 1     2.46000000000000     8.52168997323888     6.70104000000000
290 1     2.46000000000000     9.94197163544536     6.70104000000000
291 1     3.69000000000000    10.65211246654860     6.70104000000000
292 1     3.69000000000000    12.07239412875508     6.70104000000000
293 1     2.46000000000000     8.52168997323888    10.05156000000000
294 1     2.46000000000000    11.36225329765183    10.05156000000000
295 1     3.69000000000000    10.65211246654860    10.05156000000000
296 1     3.69000000000000     9.23183080434212    10.05156000000000
297 1     4.92000000000000     8.52168997323888     6.70104000000000
298 1     4.92000000000000     9.94197163544536     6.70104000000000
299 1     6.15000000000000    10.65211246654860     6.70104000000000
300 1     6.15000000000000    12.07239412875508     6.70104000000000
301 1     4.92000000000000     8.52168997323888    10.05156000000000
302 1     4.92000000000000    11.36225329765183    10.05156000000000
303 1     6.15000000000000    10.65211246654860    10.05156000000000
304 1     6.15000000000000     9.23183080434212    10.05156000000000
305 1     7.38000000000000     8.52168997323888     6.70104000000000
306 1     7.38000000000000     9.94197163544536     6.70104000000000
307 1     8.61000000000000    10.65211246654860     6.70104000000000
308 1     8.61000000000000    12.07239412875508     6.70104000000000
309 1     7.38000000000000     8.52168997323888    10.05156000000000
310 1     7.38000000000000    11.36225329765183    10.05156000000000
311 1     8.61000000000000    10.65211246654860    10.05156000000000
312 1     8.61000000000000     9.23183080434212    10.05156000000000
313 1     9.84000000000000     8.52168997323888     6.70104000000000
314 1     9.84000000000000     9.94197163544536     6.70104000000000
315 1    11.07000000000000    10.65211246654860     6.70104000000000
316 1    11.07000000000000    12.07239412875508     6.70104000000000
317 1     9.84000000000000     8.52168997323888    10.05156000000000
318 1     9.84000000000000    11.36225329765183    10.05156000000000
319 1    11.07000000000000    10.65211246654860    10.05156000000000
320 1    11.07000000000000     9.23183080434212    10.05156000000000
321 1     0.00000000000000    12.78253495985831     6.70104000000000
322 1     0.00000000000000    14.20281662206479     6.70104000000000
323 1     1.23000000000000    14.91295745316803     6.70104000000000
324 1     1.23000000000000    16.33323911537451     6.70104000000000
325 1     0.00000000000000    12.78253495985831    10.05156000000000
326 1     0.00000000000000    15.62309828427127    10.05156000000000
327 1     1.23000000000000    14.91295745316803    10.05156000000000
328 1     1.23000000000000    13.49267579096155    10.05156000000000
329 1     2.46000000000000    12.78253495985831     6.70104000000000
330 1     2.46000000000000    14.20281662206479     6.70104000000000
331 1     3.69000000000000    14.91295745316803     6.70104000000000
332 1     3.69000000000000    16.33323911537451     6.70104000000000
333 1     2.46000000000000    12.78253495985831    10.05156000000000
334 1     2.46000000000000    15.62309828427127    10.05156000000000
335 1     3.69000000000000    14.91295745316803    10.05156000000000
336 1     3.69000000000000    13.49267579096155    10.05156000000000
337 1     4.92000000000000    12.78253495985831     6.70104000000000
338 1     4.92000000000000    14.20281662206479     6.70104000000000
339 1     6.15000000000000    14.91295745316803     6.70104000000000
340 1     6.15000000000000    16.33323911537451     6.70104000000000
341 1     4.92000000000000    12.78253495985831    10.05156000000000
342 1     4.92000000000000    15.62309828427127    10.05156000000000
343 1     6.15000000000000    14.91295745316803    10.05156000000000
344 1     6.15000000000000    13.49267579096155    10.05156000000000
345 1     7.38000000000000    12.78253495985831     6.70104000000000
346 1     7.38000000000000    14.20281662206479     6.70104000000000
347 1     8.61000000000000    14.91295745316803     6.70104000000000
348 1     8.61000000000000    16.33323911537451     6.70104000000000
349 1     7.38000000000000    12.78253495985831    10.05156000000000
350 1     7.38000000000000    15.62309828427127    10.05156000000000
351 1     8.61000000000000    14.91295745316803    10.05156000000000
352 1     8.61000000000000    13.49267579096155    10.05156000000000
353 1     9.84000000000000    12.78253495985831     6.70104000000000
354 1     9.84000000000000    14.20281662206479     6.70104000000000
355 1    11.07000000000000    14.91295745316803     6.70104000000000
356 1    11.07000000000000    16.33323911537451     6.70104000000000
357 1     9.84000000000000    12.78253495985831    10.05156000000000
358 1     9.84000000000000    15.62309828427127    10.05156000000000
359 1    11.07000000000000    14.91295745316803    10.05156000000000
360 1    11.07000000000000    13.49267579096155    10.05156000000000
361 1     0.00000000000000    17.04337994647775     6.70104000000000
362 1     0.00000000000000    18.46366160868423     6.70104000000000
363 1     1.23000000000000    19.17380243978747     6.70104000000000
364 1     1.23000000000000    20.59408410199395     6.70104000000000
365 1     0.00000000000000    17.04337994647775    10.05156000000000
366 1     0.00000000000000    19.88394327089071    10.05156000000000
367 1     1.23000000000000    19.17380243978747    10.05156000000000
368 1     1.23000000000000    17.75352077758100    10.05156000000000
369 1     2.46000000000000    17.04337994647775     6.70104000000000
370 1     2.46000000000000    18.46366160868423     6.70104000000000
371 1     3.69000000000000    19.17380243978747     6.70104000000000
372 1     3.69000000000000    20.59408410199395     6.70104000000000
373 1     2.46000000000000    17.04337994647775    10.05156000000000
374 1     2.46000000000000    19.88394327089071    10.05156000000000
375 1     3.69000000000000    19.17380243978747    10.05156000000000
376 1     3.69000000000000    17.75352077758100    10.05156000000000
377 1     4.92000000000000    17.04337994647775     6.70104000000000
378 1     4.92000000000000    18.46366160868423     6.70104000000000
379 1     6.15000000000000    19.17380243978747     6.70104000000000
380 1     6.15000000000000    20.59408410199395     6.70104000000000
381 1     4.92000000000000    17.04337994647775    10.05156000000000
382 1     4.92000000000000    19.88394327089071    10.05156000000000
383 1     6.15000000000000    19.17380243978747    10.05156000000000
384 1     6.15000000000000    17.75352077758100    10.05156000000000
385 1     7.38000000000000    17.04337994647775     6.70104000000000
386 1     7.38000000000000    18.46366160868423     6.70104000000000
387 1     8.61000000000000    19.17380243978747     6.70104000000000
388 1     8.61000000000000    20.59408410199395     6.70104000000000
389 1     7.38000000000000    17.04337994647775    10.05156000000000
390 1     7.38000000000000    19.88394327089071    10.05156000000000
391 1     8.61000000000000    19.17380243978747    10.05156000000000
392 1     8.61000000000000    17.75352077758100    10.05156000000000
393 1     9.84000000000000    17.04337994647775     6.70104000000000
394 1     9.84000000000000    18.46366160868423     6.70104000000000
395 1    11.07000000000000    19.17380243978747     6.70104000000000
396 1    11.07000000000000    20.59408410199395     6.70104000000000
397 1     9.84000000000000    17.04337994647775    10.05156000000000
398 1     9.84000000000000    19.88394327089071    10.05156000000000
399 1    11.07000000000000    19.17380243978747    10.05156000000000
400 1    11.07000000000000    17.75352077758100    10.05156000000000
401 1     0.00000000000000     0.00000000000000    13.40208000000000
402 1     0.00000000000000     1.42028166220648    13.40208000000000
403 1     1.23000000000000     2.13042249330972    13.40208000000000
404 1     1.23000000000000     3.55070415551620    13.40208000000000
405 1     0.00000000000000     0.00000000000000    16.75260000000000
406 1     0.00000000000000     2.84056332441296    16.75260000000000
407 1     1.23000000000000     2.13042249330972    16.75260000000000
408 1     1.23000000000000     0.71014083110324    16.75260000000000
409 1     2.46000000000000     0.00000000000000    13.40208000000000
410 1     2.46000000000000     1.42028166220648    13.40208000000000
411 1     3.69000000000000     2.13042249330972    13.40208000000000
412 1     3.69000000000000     3.55070415551620    13.40208000000000
413 1     2.46000000000000     0.00000000000000    16.75260000000000
414 1     2.46000000000000     2.84056332441296    16.75260000000000
415 1     3.69000000000000     2.13042249330972    16.75260000000000
416 1     3.69000000000000     0.71014083110324    16.75260000000000
417 1     4.92000000000000     0.00000000000000    13.40208000000000
418 1     4.92000000000000     1.42028166220648    13.40208000000000
419 1     6.15000000000000     2.13042249330972    13.40208000000000
420 1     6.15000000000000     3.55070415551620    13.40208000000000
421 1     4.92000000000000     0.00000000000000    16.75260000000000
422 1     4.92000000000000     2.84056332441296    16.75260000000000
423 1     6.15000000000000     2.13042249330972    16.75260000000000
424 1     6.15000000000000     0.71014083110324    16.75260000000000
425 1     7.38000000000000     0.00000000000000    13.40208000000000
426 1     7.38000000000000     1.42028166220648    13.40208000000000
427 1     8.61000000000000     2.13042249330972    13.40208000000000
428 1     8.61000000000000     3.55070415551620    13.40208000000000
429 1     7.38000000000000     0.00000000000000    16.75260000000000
430 1     7.38000000000000     2.84056332441296    16.75260000000000
431 1     8.61000000000000     2.13042249330972    16.75260000000000
432 1     8.61000000000000     0.71014083110324    16.75260000000000
433 1     9.84000000000000     0.00000000000000    13.40208000000000