# Graphite cell with dimension 5 x 5 x 2 and a = 2.46
       400  atoms
         1  atom types

 0.    12.30000000000000  xlo xhi
 0.    21.30422493309719  ylo yhi
 0.    13.40000000000021  zlo zhi

Masses

1 12.0112

Atoms

1 1     0.00000000000000     0.00000000000000     0.00000000000000
2 1     0.00000000000000     1.42028166220648     0.00000000000000
3 1     1.23000000000000     2.13042249330972     0.00000000000000
4 1     1.23000000000000     3.55070415551620     0.00000000000000
5 1     0.00000000000000     0.00000000000000     3.35000000000005
6 1     0.00000000000000     2.84056332441296     3.35000000000005
7 1     1.23000000000000     2.13042249330972     3.35000000000005
8 1     1.23000000000000     0.71014083110324     3.35000000000005
9 1     2.46000000000000     0.00000000000000     0.00000000000000
10 1     2.46000000000000     1.42028166220648     0.00000000000000
11 1     3.69000000000000     2.13042249330972     0.00000000000000
12 1     3.69000000000000     3.55070415551620     0.00000000000000
13 1     2.46000000000000     0.00000000000000     3.35000000000005
14 1     2.46000000000000     2.84056332441296     3.35000000000005
15 1     3.69000000000000     2.13042249330972     3.35000000000005
16 1     3.69000000000000     0.71014083110324     3.35000000000005
17 1     4.92000000000000     0.00000000000000     0.00000000000000
18 1     4.92000000000000     1.42028166220648     0.00000000000000
19 1     6.15000000000000     2.13042249330972     0.00000000000000
20 1     6.15000000000000     3.55070415551620     0.00000000000000
21 1     4.92000000000000     0.00000000000000     3.35000000000005
22 1     4.92000000000000     2.84056332441296     3.35000000000005
23 1     6.15000000000000     2.13042249330972     3.35000000000005
24 1     6.15000000000000     0.71014083110324     3.35000000000005
25 1     7.38000000000000     0.00000000000000     0.00000000000000
26 1     7.38000000000000     1.42028166220648     0.00000000000000
27 1     8.61000000000000     2.13042249330972     0.00000000000000
28 1     8.61000000000000     3.55070415551620     0.00000000000000
29 1     7.38000000000000     0.00000000000000     3.35000000000005
30 1     7.38000000000000     2.84056332441296     3.35000000000005
31 1     8.61000000000000     2.13042249330972     3.35000000000005
32 1     8.61000000000000     0.71014083110324     3.35000000000005
33 1     9.84000000000000     0.00000000000000     0.00000000000000
34 1     9.84000000000000     1.42028166220648     0.00000000000000
35 1    11.07000000000000     2.13042249330972     0.00000000000000
36 1    11.07000000000000     3.55070415551620     0.00000000000000
37 1     9.84000000000000     0.00000000000000     3.35000000000005
38 1     9.84000000000000     2.84056332441296     3.35000000000005
39 1    11.07000000000000     2.13042249330972     3.35000000000005
40 1    11.07000000000000     0.71014083110324     3.35000000000005
41 1     0.00000000000000     4.26084498661944     0.00000000000000
42 1     0.00000000000000     5.68112664882592     0.00000000000000
43 1     1.23000000000000     6.39126747992916     0.00000000000000
44 1     1.23000000000000     7.81154914213564     0.00000000000000
45 1     0.00000000000000     4.26084498661944     3.35000000000005
46 1     0.00000000000000     7.10140831103240     3.35000000000005
47 1     1.23000000000000     6.39126747992916     3.35000000000005
48 1     1.23000000000000     4.97098581772268     3.35000000000005
49 1     2.46000000000000     4.26084498661944     0.00000000000000
50 1     2.46000000000000     5.68112664882592     0.00000000000000
51 1     3.69000000000000     6.39126747992916     0.00000000000000
52 1     3.69000000000000     7.81154914213564     0.00000000000000
53 1     2.46000000000000     4.26084498661944     3.35000000000005
54 1     2.46000000000000     7.10140831103240     3.35000000000005
55 1     3.69000000000000     6.39126747992916     3.35000000000005
56 1     3.69000000000000     4.97098581772268     3.35000000000005
57 1     4.92000000000000     4.26084498661944     0.00000000000000
58 1     4.92000000000000     5.68112664882592     0.00000000000000
59 1     6.15000000000000     6.39126747992916     0.00000000000000
60 1     6.15000000000000     7.81154914213564     0.00000000000000
61 1     4.92000000000000     4.26084498661944     3.35000000000005
62 1     4.92000000000000     7.10140831103240     3.35000000000005
63 1     6.15000000000000     6.39126747992916     3.35000000000005
64 1     6.15000000000000     4.97098581772268     3.35000000000005
65 1     7.38000000000000     4.26084498661944     0.00000000000000
66 1     7.38000000000000     5.68112664882592     0.00000000000000
67 1     8.61000000000000     6.39126747992916     0.00000000000000
68 1     8.61000000000000     7.81154914213564     0.00000000000000
69 1     7.38000000000000     4.26084498661944     3.35000000000005
70 1     7.38000000000000     7.10140831103240     3.35000000000005
71 1     8.61000000000000     6.39126747992916     3.35000000000005
72 1     8.61000000000000     4.97098581772268     3.35000000000005
73 1     9.84000000000000     4.26084498661944     0.00000000000000
74 1     9.84000000000000     5.68112664882592     0.00000000000000
75 1    11.07000000000000     6.39126747992916     0.00000000000000
76 1    11.07000000000000     7.81154914213564     0.00000000000000
77 1     9.84000000000000     4.26084498661944     3.35000000000005
78 1     9.84000000000000     7.10140831103240     3.35000000000005
79 1    11.07000000000000     6.39126747992916     3.35000000000005
80 1    11.07000000000000     4.97098581772268     3.35000000000005
81 1     0.00000000000000     8.52168997323888     0.00000000000000
82 1     0.00000000000000     9.94197163544536     0.00000000000000
83 1     1.23000000000000    10.65211246654860     0.00000000000000
84 1     1.23000000000000    12.07239412875508     0.00000000000000
85 1     0.00000000000000     8.52168997323888     3.35000000000005
86 1     0.00000000000000    11.36225329765183     3.35000000000005
87 1     1.23000000000000    10.65211246654860     3.35000000000005
88 1     1.23000000000000     9.23183080434212     3.35000000000005
89 1     2.46000000000000     8.52168997323888     0.00000000000000
90 1     2.46000000000000     9.94197163544536     0.00000000000000
91 1     3.69000000000000    10.65211246654860     0.00000000000000
92 1     3.69000000000000    12.07239412875508     0.00000000000000
93 1     2.46000000000000     8.52168997323888     3.35000000000005
94 1     2.46000000000000    11.36225329765183     3.35000000000005
95 1     3.69000000000000    10.65211246654860     3.35000000000005
96 1     3.69000000000000     9.23183080434212     3.35000000000005
97 1     4.92000000000000     8.52168997323888     0.00000000000000
98 1     4.92000000000000     9.94197163544536     0.00000000000000
99 1     6.15000000000000    10.65211246654860     0.00000000000000
100 1     6.15000000000000    12.07239412875508     0.00000000000000
101 1     4.92000000000000     8.52168997323888     3.35000000000005
102 1     4.92000000000000    11.36225329765183     3.35000000000005
103 1     6.15000000000000    10.65211246654860     3.35000000000005
104 1     6.15000000000000     9.23183080434212     3.35000000000005
105 1     7.38000000000000     8.52168997323888     0.00000000000000
106 1     7.38000000000000     9.94197163544536     0.00000000000000
107 1     8.61000000000000    10.65211246654860     0.00000000000000
108 1     8.61000000000000    12.07239412875508     0.00000000000000
109 1     7.38000000000000     8.52168997323888     3.35000000000005
110 1     7.38000000000000    11.36225329765183     3.35000000000005
111 1     8.61000000000000    10.65211246654860     3.35000000000005
112 1     8.61000000000000     9.23183080434212     3.35000000000005
113 1     9.84000000000000     8.52168997323888     0.00000000000000
114 1     9.84000000000000     9.94197163544536     0.00000000000000
115 1    11.07000000000000    10.65211246654860     0.00000000000000
116 1    11.07000000000000    12.07239412875508     0.00000000000000
117 1     9.84000000000000     8.52168997323888     3.35000000000005
118 1     9.84000000000000    11.36225329765183     3.35000000000005
119 1    11.07000000000000    10.65211246654860     3.35000000000005
120 1    11.07000000000000     9.23183080434212     3.35000000000005
121 1     0.00000000000000    12.78253495985831     0.00000000000000
122 1     0.00000000000000    14.20281662206479     0.00000000000000
123 1     1.23000000000000    14.91295745316803     0.00000000000000
124 1     1.23000000000000    16.33323911537451     0.00000000000000
125 1     0.00000000000000    12.78253495985831     3.35000000000005
126 1     0.00000000000000    15.62309828427127     3.35000000000005
127 1     1.23000000000000    14.91295745316803     3.35000000000005
128 1     1.23000000000000    13.49267579096155     3.35000000000005
129 1     2.46000000000000    12.78253495985831     0.00000000000000
130 1     2.46000000000000    14.20281662206479     0.00000000000000
131 1     3.69000000000000    14.91295745316803     0.00000000000000
132 1     3.69000000000000    16.33323911537451     0.00000000000000
133 1     2.46000000000000    12.78253495985831     3.35000000000005
134 1     2.46000000000000    15.62309828427127     3.35000000000005
135 1     3.69000000000000    14.91295745316803     3.35000000000005
136 1     3.69000000000000    13.49267579096155     3.35000000000005
137 1     4.92000000000000    12.78253495985831     0.00000000000000
138 1     4.92000000000000    14.20281662206479     0.00000000000000
139 1     6.15000000000000    14.91295745316803     0.00000000000000
140 1     6.15000000000000    16.33323911537451     0.00000000000000
141 1     4.92000000000000    12.78253495985831     3.35000000000005
142 1     4.92000000000000    15.62309828427127     3.35000000000005
143 1     6.15000000000000    14.91295745316803     3.35000000000005
144 1     6.15000000000000    13.49267579096155     3.35000000000005
145 1     7.38000000000000    12.78253495985831     0.00000000000000
146 1     7.38000000000000    14.20281662206479     0.00000000000000
147 1     8.61000000000000    14.91295745316803     0.00000000000000
148 1     8.61000000000000    16.33323911537451     0.00000000000000
149 1     7.38000000000000    12.78253495985831     3.35000000000005
150 1     7.38000000000000    15.62309828427127     3.35000000000005
151 1     8.61000000000000    14.91295745316803     3.35000000000005
152 1     8.61000000000000    13.49267579096155     3.35000000000005
153 1     9.84000000000000    12.78253495985831     0.00000000000000
154 1     9.84000000000000    14.20281662206479     0.00000000000000
155 1    11.07000000000000    14.91295745316803     0.00000000000000
156 1    11.07000000000000    16.33323911537451     0.00000000000000
157 1     9.84000000000000    12.78253495985831     3.35000000000005
158 1     9.84000000000000    15.62309828427127     3.35000000000005
159 1    11.07000000000000    14.91295745316803     3.35000000000005
160 1    11.07000000000000    13.49267579096155     3.35000000000005
161 1     0.00000000000000    17.04337994647775     0.00000000000000
162 1     0.00000000000000    18.46366160868423     0.00000000000000
163 1     1.23000000000000    19.17380243978747     0.00000000000000
164 1     1.23000000000000    20.59408410199395     0.00000000000000
165 1     0.00000000000000    17.04337994647775     3.35000000000005
166 1     0.00000000000000    19.88394327089071     3.35000000000005
167 1     1.23000000000000    19.17380243978747     3.35000000000005
168 1     1.23000000000000    17.75352077758100     3.35000000000005
169 1     2.46000000000000    17.04337994647775     0.00000000000000
170 1     2.46000000000000    18.46366160868423     0.00000000000000
171 1     3.69000000000000    19.17380243978747     0.00000000000000
172 1     3.69000000000000    20.59408410199395     0.00000000000000
173 1     2.46000000000000    17.04337994647775     3.35000000000005
174 1     2.46000000000000    19.88394327089071     3.35000000000005
175 1     3.69000000000000    19.17380243978747     3.35000000000005
176 1     3.69000000000000    17.75352077758100     3.35000000000005
177 1     4.92000000000000    17.04337994647775     0.00000000000000
178 1     4.92000000000000    18.46366160868423     0.00000000000000
179 1     6.15000000000000    19.17380243978747     0.00000000000000
180 1     6.15000000000000    20.59408410199395     0.00000000000000
181 1     4.92000000000000    17.04337994647775     3.35000000000005
182 1     4.92000000000000    19.88394327089071     3.35000000000005
183 1     6.15000000000000    19.17380243978747     3.35000000000005
184 1     6.15000000000000    17.75352077758100     3.35000000000005
185 1     7.38000000000000    17.04337994647775     0.00000000000000
186 1     7.38000000000000    18.46366160868423     0.00000000000000
187 1     8.61000000000000    19.17380243978747     0.00000000000000
188 1     8.61000000000000    20.59408410199395     0.00000000000000
189 1     7.38000000000000    17.04337994647775     3.35000000000005
190 1     7.38000000000000    19.88394327089071     3.35000000000005
191 1     8.61000000000000    19.17380243978747     3.35000000000005
192 1     8.61000000000000    17.75352077758100     3.35000000000005
193 1     9.84000000000000    17.04337994647775     0.00000000000000
194 1     9.84000000000000    18.46366160868423     0.00000000000000
195 1    11.07000000000000    19.17380243978747     0.00000000000000
196 1    11.07000000000000    20.59408410199395     0.00000000000000
197 1     9.84000000000000    17.04337994647775     3.35000000000005
198 1     9.84000000000000    19.88394327089071     3.35000000000005
199 1    11.07000000000000    19.17380243978747     3.35000000000005
200 1    11.07000000000000    17.75352077758100     3.35000000000005
201 1     0.00000000000000     0.00000000000000     6.70000000000010
202 1     0.00000000000000     1.42028166220648     6.70000000000010
203 1     1.23000000000000     2.13042249330972     6.70000000000010
204 1     1.23000000000000     3.55070415551620     6.70000000000010
205 1     0.00000000000000     0.00000000000000    10.05000000000016
206 1     0.00000000000000     2.84056332441296    10.05000000000016
207 1     1.23000000000000     2.13042249330972    10.05000000000016
208 1     1.23000000000000     0.71014083110324    10.05000000000016
209 1     2.46000000000000     0.00000000000000     6.70000000000010
210 1     2.46000000000000     1.42028166220648     6.70000000000010
211 1     3.69000000000000     2.13042249330972     6.70000000000010
212 1     3.69000000000000     3.55070415551620     6.70000000000010
213 1     2.46000000000000     0.00000000000000    10.05000000000016
214 1     2.46000000000000     2.84056332441296    10.05000000000016
215 1     3.69000000000000     2.13042249330972    10.05000000000016
216 1     3.69000000000000     0.71014083110324    10.05000000000016
217 1     4.92000000000000     0.00000000000000     6.70000000000010
218 1     4.92000000000000     1.42028166220648     6.70000000000010
219 1     6.15000000000000     2.13042249330972     6.70000000000010
220 1     6.15000000000000     3.55070415551620     6.70000000000010
221 1     4.92000000000000     0.00000000000000    10.05000000000016
222 1     4.92000000000000     2.84056332441296    10.05000000000016
223 1     6.15000000000000     2.13042249330972    10.05000000000016
224 1     6.15000000000000     0.71014083110324    10.05000000000016
225 1     7.38000000000000     0.00000000000000     6.70000000000010
226 1     7.38000000000000     1.42028166220648     6.70000000000010
227 1     8.61000000000000     2.13042249330972     6.70000000000010
228 1     8.61000000000000     3.55070415551620     6.70000000000010
229 1     7.38000000000000     0.00000000000000    10.05000000000016
230 1     7.38000000000000     2.84056332441296    10.05000000000016
231 1     8.61000000000000     2.13042249330972    10.05000000000016
232 1     8.61000000000000     0.71014083110324    10.05000000000016
233 1     9.84000000000000     0.00000000000000     6.70000000000010
234 1     9.84000000000000     1.42028166220648     6.70000000000010
235 1    11.07000000000000     2.13042249330972     6.70000000000010
236 1    11.07000000000000     3.55070415551620     6.70000000000010
237 1     9.84000000000000     0.00000000000000    10.05000000000016
238 1     9.84000000000000     2.84056332441296    10.05000000000016
239 1    11.07000000000000     2.13042249330972    10.05000000000016
240 1    11.07000000000000     0.71014083110324    10.05000000000016
241 1     0.00000000000000     4.26084498661944     6.70000000000010
242 1     0.00000000000000     5.68112664882592     6.70000000000010
243 1     1.23000000000000     6.39126747992916     6.70000000000010
244 1     1.23000000000000     7.81154914213564     6.70000000000010
245 1     0.00000000000000     4.26084498661944    10.05000000000016
246 1     0.00000000000000     7.10140831103240    10.05000000000016
247 1     1.23000000000000     6.39126747992916    10.05000000000016
248 1     1.23000000000000     4.97098581772268    10.05000000000016
249 1     2.46000000000000     4.26084498661944     6.70000000000010
250 1     2.46000000000000     5.68112664882592     6.70000000000010
251 1     3.69000000000000     6.39126747992916     6.70000000000010
252 1     3.69000000000000     7.81154914213564     6.70000000000010
253 1     2.46000000000000     4.26084498661944    10.05000000000016
254 1     2.46000000000000     7.10140831103240    10.05000000000016
255 1     3.69000000000000     6.39126747992916    10.05000000000016
256 1     3.69000000000000     4.97098581772268    10.05000000000016
257 1     4.92000000000000     4.26084498661944     6.70000000000010
258 1     4.92000000000000     5.68112664882592     6.70000000000010
259 1     6.15000000000000     6.39126747992916     6.70000000000010
260 1     6.15000000000000     7.81154914213564     6.70000000000010
261 1     4.92000000000000     4.26084498661944    10.05000000000016
262 1     4.92000000000000     7.10140831103240    10.05000000000016
263 1     6.15000000000000     6.39126747992916    10.05000000000016
264 1     6.15000000000000     4.97098581772268    10.05000000000016
265 1     7.38000000000000     4.26084498661944     6.70000000000010
266 1     7.38000000000000     5.68112664882592     6.70000000000010
267 1     8.61000000000000     6.39126747992916     6.70000000000010
268 1     8.61000000000000     7.81154914213564     6.70000000000010
269 1     7.38000000000000     4.26084498661944    10.05000000000016
270 1     7.38000000000000     7.10140831103240    10.05000000000016
271 1     8.61000000000000     6.39126747992916    10.05000000000016
272 1     8.61000000000000     4.97098581772268    10.05000000000016
273 1     9.84000000000000     4.26084498661944     6.70000000000010
274 1     9.84000000000000     5.68112664882592     6.70000000000010
275 1    11.07000000000000     6.39126747992916     6.70000000000010
276 1    11.07000000000000     7.81154914213564     6.70000000000010
277 1     9.84000000000000     4.26084498661944    10.05000000000016
278 1     9.84000000000000     7.10140831103240    10.05000000000016
279 1    11.07000000000000     6.39126747992916    10.05000000000016
280 1    11.07000000000000     4.97098581772268    10.05000000000016
281 1     0.00000000000000     8.52168997323888     6.70000000000010
282 1     0.00000000000000     9.94197163544536     6.70000000000010
283 1     1.23000000000000    10.65211246654860     6.70000000000010
284 1     1.23000000000000    12.07239412875508     6.70000000000010
285 1     0.00000000000000     8.52168997323888    10.05000000000016
286 1     0.00000000000000    11.36225329765183    10.05000000000016
287 1     1.23000000000000    10.65211246654860    10.05000000000016
288 1     1.23000000000000     9.23183080434212    10.05000000000016
289 1     2.46000000000000     8.52168997323888     6.70000000000010
290 1     2.46000000000000     9.94197163544536     6.70000000000010
291 1     3.69000000000000    10.65211246654860     6.70000000000010
292 1     3.69000000000000    12.07239412875508     6.70000000000010
293 1     2.46000000000000     8.52168997323888    10.05000000000016
294 1     2.46000000000000    11.36225329765183    10.05000000000016
295 1     3.69000000000000    10.65211246654860    10.05000000000016
296 1     3.69000000000000     9.23183080434212    10.05000000000016
297 1     4.92000000000000     8.52168997323888     6.70000000000010
298 1     4.92000000000000     9.94197163544536     6.70000000000010
299 1     6.15000000000000    10.65211246654860     6.70000000000010
300 1     6.15000000000000    12.07239412875508     6.70000000000010
301 1     4.92000000000000     8.52168997323888    10.05000000000016
302 1     4.92000000000000    11.36225329765183    10.05000000000016
303 1     6.15000000000000    10.65211246654860    10.05000000000016
304 1     6.15000000000000     9.23183080434212    10.05000000000016
305 1     7.38000000000000     8.52168997323888     6.70000000000010
306 1     7.38000000000000     9.94197163544536     6.70000000000010
307 1     8.61000000000000    10.65211246654860     6.70000000000010
308 1     8.61000000000000    12.07239412875508     6.70000000000010
309 1     7.38000000000000     8.52168997323888    10.05000000000016
310 1     7.38000000000000    11.36225329765183    10.05000000000016
311 1     8.61000000000000    10.65211246654860    10.05000000000016
312 1     8.61000000000000     9.23183080434212    10.05000000000016
313 1     9.84000000000000     8.52168997323888     6.70000000000010
314 1     9.84000000000000     9.94197163544536     6.70000000000010
315 1    11.07000000000000    10.65211246654860     6.70000000000010
316 1    11.07000000000000    12.07239412875508     6.70000000000010
317 1     9.84000000000000     8.52168997323888    10.05000000000016
318 1     9.84000000000000    11.36225329765183    10.05000000000016
319 1    11.07000000000000    10.65211246654860    10.05000000000016
320 1    11.07000000000000     9.23183080434212    10.05000000000016
321 1     0.00000000000000    12.78253495985831     6.70000000000010
322 1     0.00000000000000    14.20281662206479     6.70000000000010
323 1     1.23000000000000    14.91295745316803     6.70000000000010
324 1     1.23000000000000    16.33323911537451     6.70000000000010
325 1     0.00000000000000    12.78253495985831    10.05000000000016
326 1     0.00000000000000    15.62309828427127    10.05000000000016
327 1     1.23000000000000    14.91295745316803    10.05000000000016
328 1     1.23000000000000    13.49267579096155    10.05000000000016
329 1     2.46000000000000    12.78253495985831     6.70000000000010
330 1     2.46000000000000    14.20281662206479     6.70000000000010
331 1     3.69000000000000    14.91295745316803     6.70000000000010
332 1     3.69000000000000    16.33323911537451     6.70000000000010
333 1     2.46000000000000    12.78253495985831    10.05000000000016
334 1     2.46000000000000    15.62309828427127    10.05000000000016
335 1     3.69000000000000    14.91295745316803    10.05000000000016
336 1     3.69000000000000    13.49267579096155    10.05000000000016
337 1     4.92000000000000    12.78253495985831     6.70000000000010
338 1     4.92000000000000    14.20281662206479     6.70000000000010
339 1     6.15000000000000    14.91295745316803     6.70000000000010
340 1     6.15000000000000    16.33323911537451     6.70000000000010
341 1     4.92000000000000    12.78253495985831    10.05000000000016
342 1     4.92000000000000    15.62309828427127    10.05000000000016
343 1     6.15000000000000    14.91295745316803    10.05000000000016
344 1     6.15000000000000    13.49267579096155    10.05000000000016
345 1     7.38000000000000    12.78253495985831     6.70000000000010
346 1     7.38000000000000    14.20281662206479     6.70000000000010
347 1     8.61000000000000    14.91295745316803     6.70000000000010
348 1     8.61000000000000    16.33323911537451     6.70000000000010
349 1     7.38000000000000    12.78253495985831    10.05000000000016
350 1     7.38000000000000    15.62309828427127    10.05000000000016
351 1     8.61000000000000    14.91295745316803    10.05000000000016
352 1     8.61000000000000    13.49267579096155    10.05000000000016
353 1     9.84000000000000    12.78253495985831     6.70000000000010
354 1     9.84000000000000    14.20281662206479     6.70000000000010
355 1    11.07000000000000    14.91295745316803     6.70000000000010
356 1    11.07000000000000    16.33323911537451     6.70000000000010
357 1     9.84000000000000    12.78253495985831    10.05000000000016
358 1     9.84000000000000    15.62309828427127    10.05000000000016
359 1    11.07000000000000    14.91295745316803    10.05000000000016
360 1    11.07000000000000    13.49267579096155    10.05000000000016
361 1     0.00000000000000    17.04337994647775     6.70000000000010
362 1     0.00000000000000    18.46366160868423     6.70000000000010
363 1     1.23000000000000    19.17380243978747     6.70000000000010
364 1     1.23000000000000    20.59408410199395     6.70000000000010
365 1     0.00000000000000    17.04337994647775    10.05000000000016
366 1     0.00000000000000    19.88394327089071    10.05000000000016
367 1     1.23000000000000    19.17380243978747    10.05000000000016
368 1     1.23000000000000    17.75352077758100    10.05000000000016
369 1     2.46000000000000    17.04337994647775     6.70000000000010
370 1     2.46000000000000    18.46366160868423     6.70000000000010
371 1     3.69000000000000    19.17380243978747     6.70000000000010
372 1     3.69000000000000    20.59408410199395     6.70000000000010
373 1     2.46000000000000    17.04337994647775    10.05000000000016
374 1     2.46000000000000    19.88394327089071    10.05000000000016
375 1     3.69000000000000    19.17380243978747    10.05000000000016
376 1     3.69000000000000    17.75352077758100    10.05000000000016
377 1     4.92000000000000    17.04337994647775     6.70000000000010
378 1     4.92000000000000    18.46366160868423     6.70000000000010
379 1     6.15000000000000    19.17380243978747     6.70000000000010
380 1     6.15000000000000    20.59408410199395     6.70000000000010
381 1     4.92000000000000    17.04337994647775    10.05000000000016
382 1     4.92000000000000    19.88394327089071    10.05000000000016
383 1     6.15000000000000    19.17380243978747    10.05000000000016
384 1     6.15000000000000    17.75352077758100    10.05000000000016
385 1     7.38000000000000    17.04337994647775     6.70000000000010
386 1     7.38000000000000    18.46366160868423     6.70000000000010
387 1     8.61000000000000    19.17380243978747     6.70000000000010
388 1     8.61000000000000    20.59408410199395     6.70000000000010
389 1     7.38000000000000    17.04337994647775    10.05000000000016
390 1     7.38000000000000    19.88394327089071    10.05000000000016
391 1     8.61000000000000    19.17380243978747    10.05000000000016
392 1     8.61000000000000    17.75352077758100    10.05000000000016
393 1     9.84000000000000    17.04337994647775     6.70000000000010
394 1     9.84000000000000    18.46366160868423     6.70000000000010
395 1    11.07000000000000    19.17380243978747     6.70000000000010
396 1    11.07000000000000    20.59408410199395     6.70000000000010
397 1     9.84000000000000    17.04337994647775    10.05000000000016
398 1     9.84000000000000    19.88394327089071    10.05000000000016
399 1    11.07000000000000    19.17380243978747    10.05000000000016
400 1    11.07000000000000    17.75352077758100    10.05000000000016
