 C  N 

1800 atoms

2 atom types

0 77.9422863406 xlo xhi
0 90.0 ylo yhi
0 100.0 zlo zhi

Atoms

1 1 2.59807621135 3.0 50.0
2 1 53.2605623327 9.75 50.0
3 1 54.5596004384 7.5 50.0
4 1 54.5596004384 6.0 50.0
5 1 53.2605623327 3.75 50.0
6 1 51.9615242271 3.0 50.0
7 1 49.3634480157 3.0 50.0
8 1 40.270181276 80.25 50.0
9 1 38.9711431703 82.5 50.0
10 1 51.9615242271 10.5 50.0
11 1 38.9711431703 84.0 50.0
12 1 41.5692193817 87.0 50.0
13 1 44.167295593 87.0 50.0
14 1 45.4663336987 86.25 50.0
15 1 46.7653718044 84.0 50.0
16 1 46.7653718044 82.5 50.0
17 1 45.4663336987 80.25 50.0
18 1 44.167295593 79.5 50.0
19 1 41.5692193817 79.5 50.0
20 1 40.270181276 86.25 50.0
21 1 49.3634480157 10.5 50.0
22 1 48.06440991 9.75 50.0
23 1 46.7653718044 7.5 50.0
24 1 54.5596004384 25.5 50.0
25 1 54.5596004384 24.0 50.0
26 1 53.2605623327 21.75 50.0
27 1 51.9615242271 21.0 50.0
28 1 49.3634480157 21.0 50.0
29 1 48.06440991 12.75 50.0
30 1 46.7653718044 15.0 50.0
31 1 46.7653718044 16.5 50.0
32 1 48.06440991 18.75 50.0
33 1 49.3634480157 19.5 50.0
34 1 51.9615242271 19.5 50.0
35 1 53.2605623327 18.75 50.0
36 1 54.5596004384 16.5 50.0
37 1 54.5596004384 15.0 50.0
38 1 53.2605623327 12.75 50.0
39 1 51.9615242271 12.0 50.0
40 1 49.3634480157 12.0 50.0
41 1 48.06440991 3.75 50.0
42 1 46.7653718044 6.0 50.0
43 1 40.270181276 71.25 50.0
44 1 53.2605623327 27.75 50.0
45 1 38.9711431703 73.5 50.0
46 1 40.270181276 77.25 50.0
47 1 40.270181276 59.25 50.0
48 1 41.5692193817 60.0 50.0
49 1 44.167295593 60.0 50.0
50 1 45.4663336987 59.25 50.0
51 1 46.7653718044 57.0 50.0
52 1 46.7653718044 55.5 50.0
53 1 45.4663336987 53.25 50.0
54 1 44.167295593 52.5 50.0
55 1 38.9711431703 57.0 50.0
56 1 41.5692193817 52.5 50.0
57 1 38.9711431703 46.5 50.0
58 1 38.9711431703 48.0 50.0
59 1 40.270181276 50.25 50.0
60 1 41.5692193817 51.0 50.0
61 1 44.167295593 51.0 50.0
62 1 45.4663336987 50.25 50.0
63 1 46.7653718044 48.0 50.0
64 1 46.7653718044 46.5 50.0
65 1 40.270181276 44.25 50.0
66 1 38.9711431703 55.5 50.0
67 1 40.270181276 53.25 50.0
68 1 41.5692193817 61.5 50.0
69 1 41.5692193817 78.0 50.0
70 1 44.167295593 78.0 50.0
71 1 45.4663336987 77.25 50.0
72 1 46.7653718044 75.0 50.0
73 1 46.7653718044 73.5 50.0
74 1 45.4663336987 71.25 50.0
75 1 44.167295593 70.5 50.0
76 1 41.5692193817 70.5 50.0
77 1 40.270181276 62.25 50.0
78 1 38.9711431703 64.5 50.0
79 1 38.9711431703 66.0 50.0
80 1 40.270181276 68.25 50.0
81 1 41.5692193817 69.0 50.0
82 1 44.167295593 69.0 50.0
83 1 45.4663336987 68.25 50.0
84 1 46.7653718044 66.0 50.0
85 1 46.7653718044 64.5 50.0
86 1 45.4663336987 62.25 50.0
87 1 44.167295593 61.5 50.0
88 1 38.9711431703 75.0 50.0
89 1 45.4663336987 44.25 50.0
90 1 51.9615242271 28.5 50.0
91 1 48.06440991 27.75 50.0
92 1 48.06440991 66.75 50.0
93 1 46.7653718044 69.0 50.0
94 1 46.7653718044 70.5 50.0
95 1 48.06440991 72.75 50.0
96 1 49.3634480157 73.5 50.0
97 1 51.9615242271 73.5 50.0
98 1 53.2605623327 72.75 50.0
99 1 54.5596004384 70.5 50.0
100 1 49.3634480157 75.0 50.0
101 1 54.5596004384 69.0 50.0
102 1 51.9615242271 66.0 50.0
103 1 49.3634480157 66.0 50.0
104 1 48.06440991 57.75 50.0
105 1 46.7653718044 60.0 50.0
106 1 46.7653718044 61.5 50.0
107 1 48.06440991 63.75 50.0
108 1 49.3634480157 64.5 50.0
109 1 51.9615242271 64.5 50.0
110 1 53.2605623327 66.75 50.0
111 1 51.9615242271 75.0 50.0
112 1 53.2605623327 75.75 50.0
113 1 54.5596004384 78.0 50.0
114 1 46.7653718044 87.0 50.0
115 1 46.7653718044 88.5 50.0
116 1 48.06440991 0.75 50.0
117 1 49.3634480157 1.5 50.0
118 1 51.9615242271 1.5 50.0
119 1 53.2605623327 0.75 50.0
120 1 54.5596004384 88.5 50.0
121 1 54.5596004384 87.0 50.0
122 1 53.2605623327 84.75 50.0
123 1 51.9615242271 84.0 50.0
124 1 49.3634480157 84.0 50.0
125 1 48.06440991 75.75 50.0
126 1 46.7653718044 78.0 50.0
127 1 46.7653718044 79.5 50.0
128 1 48.06440991 81.75 50.0
129 1 49.3634480157 82.5 50.0
130 1 51.9615242271 82.5 50.0
131 1 53.2605623327 81.75 50.0
132 1 54.5596004384 79.5 50.0
133 1 53.2605623327 63.75 50.0
134 1 49.3634480157 28.5 50.0
135 1 54.5596004384 61.5 50.0
136 1 53.2605623327 57.75 50.0
137 1 53.2605623327 39.75 50.0
138 1 51.9615242271 39.0 50.0
139 1 49.3634480157 39.0 50.0
140 1 48.06440991 30.75 50.0
141 1 46.7653718044 33.0 50.0
142 1 46.7653718044 34.5 50.0
143 1 48.06440991 36.75 50.0
144 1 49.3634480157 37.5 50.0
145 1 54.5596004384 42.0 50.0
146 1 51.9615242271 37.5 50.0
147 1 54.5596004384 34.5 50.0
148 1 54.5596004384 33.0 50.0
149 1 53.2605623327 30.75 50.0
150 1 51.9615242271 30.0 50.0
151 1 49.3634480157 30.0 50.0
152 1 48.06440991 21.75 50.0
153 1 46.7653718044 24.0 50.0
154 1 46.7653718044 25.5 50.0
155 1 53.2605623327 36.75 50.0
156 1 54.5596004384 43.5 50.0
157 1 53.2605623327 45.75 50.0
158 1 51.9615242271 46.5 50.0
159 1 51.9615242271 57.0 50.0
160 1 49.3634480157 57.0 50.0
161 1 48.06440991 48.75 50.0
162 1 46.7653718044 51.0 50.0
163 1 46.7653718044 52.5 50.0
164 1 48.06440991 54.75 50.0
165 1 49.3634480157 55.5 50.0
166 1 51.9615242271 55.5 50.0
167 1 53.2605623327 54.75 50.0
168 1 54.5596004384 52.5 50.0
169 1 54.5596004384 51.0 50.0
170 1 53.2605623327 48.75 50.0
171 1 51.9615242271 48.0 50.0
172 1 49.3634480157 48.0 50.0
173 1 48.06440991 39.75 50.0
174 1 46.7653718044 42.0 50.0
175 1 46.7653718044 43.5 50.0
176 1 48.06440991 45.75 50.0
177 1 49.3634480157 46.5 50.0
178 1 54.5596004384 60.0 50.0
179 1 48.06440991 84.75 50.0
180 1 44.167295593 43.5 50.0
181 1 40.270181276 35.25 50.0
182 1 38.9711431703 52.5 50.0
183 1 38.9711431703 51.0 50.0
184 1 37.6721050646 48.75 50.0
185 1 36.3730669589 48.0 50.0
186 1 33.7749907476 48.0 50.0
187 1 32.4759526419 39.75 50.0
188 1 31.1769145362 42.0 50.0
189 1 31.1769145362 43.5 50.0
190 1 37.6721050646 54.75 50.0
191 1 32.4759526419 45.75 50.0
192 1 36.3730669589 46.5 50.0
193 1 37.6721050646 45.75 50.0
194 1 38.9711431703 43.5 50.0
195 1 38.9711431703 42.0 50.0
196 1 37.6721050646 39.75 50.0
197 1 36.3730669589 39.0 50.0
198 1 33.7749907476 39.0 50.0
199 1 32.4759526419 30.75 50.0
200 1 33.7749907476 46.5 50.0
201 1 36.3730669589 55.5 50.0
202 1 33.7749907476 55.5 50.0
203 1 32.4759526419 54.75 50.0
204 1 38.9711431703 69.0 50.0
205 1 37.6721050646 66.75 50.0
206 1 36.3730669589 66.0 50.0
207 1 33.7749907476 66.0 50.0
208 1 32.4759526419 57.75 50.0
209 1 31.1769145362 60.0 50.0
210 1 31.1769145362 61.5 50.0
211 1 32.4759526419 63.75 50.0
212 1 33.7749907476 64.5 50.0
213 1 36.3730669589 64.5 50.0
214 1 37.6721050646 63.75 50.0
215 1 38.9711431703 61.5 50.0
216 1 38.9711431703 60.0 50.0
217 1 37.6721050646 57.75 50.0
218 1 36.3730669589 57.0 50.0
219 1 33.7749907476 57.0 50.0
220 1 32.4759526419 48.75 50.0
221 1 31.1769145362 51.0 50.0
222 1 31.1769145362 52.5 50.0
223 1 31.1769145362 33.0 50.0
224 1 38.9711431703 70.5 50.0
225 1 31.1769145362 34.5 50.0
226 1 33.7749907476 37.5 50.0
227 1 33.7749907476 19.5 50.0
228 1 36.3730669589 19.5 50.0
229 1 37.6721050646 18.75 50.0
230 1 38.9711431703 16.5 50.0
231 1 38.9711431703 15.0 50.0
232 1 37.6721050646 12.75 50.0
233 1 36.3730669589 12.0 50.0
234 1 33.7749907476 12.0 50.0
235 1 32.4759526419 18.75 50.0
236 1 32.4759526419 3.75 50.0
237 1 31.1769145362 7.5 50.0
238 1 32.4759526419 9.75 50.0
239 1 33.7749907476 10.5 50.0
240 1 36.3730669589 10.5 50.0
241 1 37.6721050646 9.75 50.0
242 1 38.9711431703 7.5 50.0
243 1 38.9711431703 6.0 50.0
244 1 37.6721050646 3.75 50.0
245 1 31.1769145362 6.0 50.0
246 1 31.1769145362 16.5 50.0
247 1 31.1769145362 15.0 50.0
248 1 32.4759526419 12.75 50.0
249 1 36.3730669589 37.5 50.0
250 1 37.6721050646 36.75 50.0
251 1 38.9711431703 34.5 50.0
252 1 38.9711431703 33.0 50.0
253 1 37.6721050646 30.75 50.0
254 1 36.3730669589 30.0 50.0
255 1 33.7749907476 30.0 50.0
256 1 32.4759526419 21.75 50.0
257 1 31.1769145362 24.0 50.0
258 1 31.1769145362 25.5 50.0
259 1 32.4759526419 27.75 50.0
260 1 33.7749907476 28.5 50.0
261 1 36.3730669589 28.5 50.0
262 1 37.6721050646 27.75 50.0
263 1 38.9711431703 25.5 50.0
264 1 38.9711431703 24.0 50.0
265 1 37.6721050646 21.75 50.0
266 1 36.3730669589 21.0 50.0
267 1 33.7749907476 21.0 50.0
268 1 32.4759526419 36.75 50.0
269 1 41.5692193817 43.5 50.0
270 1 37.6721050646 72.75 50.0
271 1 33.7749907476 73.5 50.0
272 1 40.270181276 17.25 50.0
273 1 38.9711431703 19.5 50.0
274 1 38.9711431703 21.0 50.0
275 1 40.270181276 23.25 50.0
276 1 41.5692193817 24.0 50.0
277 1 44.167295593 24.0 50.0
278 1 45.4663336987 23.25 50.0
279 1 46.7653718044 21.0 50.0
280 1 41.5692193817 25.5 50.0
281 1 46.7653718044 19.5 50.0
282 1 44.167295593 16.5 50.0
283 1 41.5692193817 16.5 50.0
284 1 40.270181276 8.25 50.0
285 1 38.9711431703 10.5 50.0
286 1 38.9711431703 12.0 50.0
287 1 40.270181276 14.25 50.0
288 1 41.5692193817 15.0 50.0
289 1 44.167295593 15.0 50.0
290 1 45.4663336987 17.25 50.0
291 1 44.167295593 25.5 50.0
292 1 45.4663336987 26.25 50.0
293 1 46.7653718044 28.5 50.0
294 1 38.9711431703 37.5 50.0
295 1 38.9711431703 39.0 50.0
296 1 40.270181276 41.25 50.0
297 1 41.5692193817 42.0 50.0
298 1 44.167295593 42.0 50.0
299 1 45.4663336987 41.25 50.0
300 1 46.7653718044 39.0 50.0
301 1 46.7653718044 37.5 50.0
302 1 45.4663336987 35.25 50.0
303 1 44.167295593 34.5 50.0
304 1 41.5692193817 34.5 50.0
305 1 40.270181276 26.25 50.0
306 1 38.9711431703 28.5 50.0
307 1 38.9711431703 30.0 50.0
308 1 40.270181276 32.25 50.0
309 1 41.5692193817 33.0 50.0
310 1 44.167295593 33.0 50.0
311 1 45.4663336987 32.25 50.0
312 1 46.7653718044 30.0 50.0
313 1 45.4663336987 14.25 50.0
314 1 36.3730669589 73.5 50.0
315 1 46.7653718044 12.0 50.0
316 1 45.4663336987 8.25 50.0
317 1 36.3730669589 84.0 50.0
318 1 33.7749907476 84.0 50.0
319 1 32.4759526419 75.75 50.0
320 1 31.1769145362 78.0 50.0
321 1 31.1769145362 79.5 50.0
322 1 32.4759526419 81.75 50.0
323 1 33.7749907476 82.5 50.0
324 1 36.3730669589 82.5 50.0
325 1 37.6721050646 84.75 50.0
326 1 37.6721050646 81.75 50.0
327 1 38.9711431703 78.0 50.0
328 1 37.6721050646 75.75 50.0
329 1 36.3730669589 75.0 50.0
330 1 33.7749907476 75.0 50.0
331 1 32.4759526419 66.75 50.0
332 1 31.1769145362 69.0 50.0
333 1 31.1769145362 70.5 50.0
334 1 32.4759526419 72.75 50.0
335 1 38.9711431703 79.5 50.0
336 1 38.9711431703 87.0 50.0
337 1 38.9711431703 88.5 50.0
338 1 37.6721050646 0.75 50.0
339 1 44.167295593 7.5 50.0
340 1 41.5692193817 7.5 50.0
341 1 40.270181276 89.25 50.0
342 1 38.9711431703 1.5 50.0
343 1 38.9711431703 3.0 50.0
344 1 40.270181276 5.25 50.0
345 1 41.5692193817 6.0 50.0
346 1 44.167295593 6.0 50.0
347 1 45.4663336987 5.25 50.0
348 1 46.7653718044 3.0 50.0
349 1 46.7653718044 1.5 50.0
350 1 45.4663336987 89.25 50.0
351 1 44.167295593 88.5 50.0
352 1 41.5692193817 88.5 50.0
353 1 31.1769145362 87.0 50.0
354 1 31.1769145362 88.5 50.0
355 1 32.4759526419 0.75 50.0
356 1 33.7749907476 1.5 50.0
357 1 36.3730669589 1.5 50.0
358 1 46.7653718044 10.5 50.0
359 1 36.3730669589 3.0 50.0
360 1 57.1576766498 88.5 50.0
361 1 61.0547909668 89.25 50.0
362 1 76.6432482349 5.25 50.0
363 1 0.0 3.0 50.0
364 1 0.0 1.5 50.0
365 1 76.6432482349 89.25 50.0
366 1 75.3442101292 88.5 50.0
367 1 72.7461339179 88.5 50.0
368 1 63.6528671782 84.75 50.0
369 1 62.3538290725 87.0 50.0
370 1 75.3442101292 6.0 50.0
371 1 62.3538290725 88.5 50.0
372 1 64.9519052838 1.5 50.0
373 1 67.5499814952 1.5 50.0
374 1 68.8490196009 0.75 50.0
375 1 70.1480577065 88.5 50.0
376 1 70.1480577065 87.0 50.0
377 1 68.8490196009 84.75 50.0
378 1 67.5499814952 84.0 50.0
379 1 64.9519052838 84.0 50.0
380 1 63.6528671782 0.75 50.0
381 1 72.7461339179 6.0 50.0
382 1 71.4470958122 5.25 50.0
383 1 70.1480577065 3.0 50.0
384 1 0.0 21.0 50.0
385 1 0.0 19.5 50.0
386 1 76.6432482349 17.25 50.0
387 1 75.3442101292 16.5 50.0
388 1 72.7461339179 16.5 50.0
389 1 71.4470958122 8.25 50.0
390 1 70.1480577065 10.5 50.0
391 1 70.1480577065 12.0 50.0
392 1 71.4470958122 14.25 50.0
393 1 72.7461339179 15.0 50.0
394 1 75.3442101292 15.0 50.0
395 1 76.6432482349 14.25 50.0
396 1 0.0 12.0 50.0
397 1 0.0 10.5 50.0
398 1 76.6432482349 8.25 50.0
399 1 75.3442101292 7.5 50.0
400 1 72.7461339179 7.5 50.0
401 1 71.4470958122 89.25 50.0
402 1 70.1480577065 1.5 50.0
403 1 63.6528671782 75.75 50.0
404 1 76.6432482349 23.25 50.0
405 1 62.3538290725 78.0 50.0
406 1 63.6528671782 81.75 50.0
407 1 63.6528671782 63.75 50.0
408 1 64.9519052838 64.5 50.0
409 1 67.5499814952 64.5 50.0
410 1 68.8490196009 63.75 50.0
411 1 70.1480577065 61.5 50.0
412 1 70.1480577065 60.0 50.0
413 1 68.8490196009 57.75 50.0
414 1 67.5499814952 57.0 50.0
415 1 62.3538290725 61.5 50.0
416 1 64.9519052838 57.0 50.0
417 1 62.3538290725 51.0 50.0
418 1 62.3538290725 52.5 50.0
419 1 63.6528671782 54.75 50.0
420 1 64.9519052838 55.5 50.0
421 1 67.5499814952 55.5 50.0
422 1 68.8490196009 54.75 50.0
423 1 70.1480577065 52.5 50.0
424 1 70.1480577065 51.0 50.0
425 1 63.6528671782 48.75 50.0
426 1 62.3538290725 60.0 50.0
427 1 63.6528671782 57.75 50.0
428 1 64.9519052838 66.0 50.0
429 1 64.9519052838 82.5 50.0
430 1 67.5499814952 82.5 50.0
431 1 68.8490196009 81.75 50.0
432 1 70.1480577065 79.5 50.0
433 1 70.1480577065 78.0 50.0
434 1 68.8490196009 75.75 50.0
435 1 67.5499814952 75.0 50.0
436 1 64.9519052838 75.0 50.0
437 1 63.6528671782 66.75 50.0
438 1 62.3538290725 69.0 50.0
439 1 62.3538290725 70.5 50.0
440 1 63.6528671782 72.75 50.0
441 1 64.9519052838 73.5 50.0
442 1 67.5499814952 73.5 50.0
443 1 68.8490196009 72.75 50.0
444 1 70.1480577065 70.5 50.0
445 1 70.1480577065 69.0 50.0
446 1 68.8490196009 66.75 50.0
447 1 67.5499814952 66.0 50.0
448 1 62.3538290725 79.5 50.0
449 1 68.8490196009 48.75 50.0
450 1 75.3442101292 24.0 50.0
451 1 71.4470958122 23.25 50.0
452 1 71.4470958122 62.25 50.0
453 1 70.1480577065 64.5 50.0
454 1 70.1480577065 66.0 50.0
455 1 71.4470958122 68.25 50.0
456 1 72.7461339179 69.0 50.0
457 1 75.3442101292 69.0 50.0
458 1 76.6432482349 68.25 50.0
459 1 0.0 66.0 50.0
460 1 72.7461339179 70.5 50.0
461 1 0.0 64.5 50.0
462 1 75.3442101292 61.5 50.0
463 1 72.7461339179 61.5 50.0
464 1 71.4470958122 53.25 50.0
465 1 70.1480577065 55.5 50.0
466 1 70.1480577065 57.0 50.0
467 1 71.4470958122 59.25 50.0
468 1 72.7461339179 60.0 50.0
469 1 75.3442101292 60.0 50.0
470 1 76.6432482349 62.25 50.0
471 1 75.3442101292 70.5 50.0
472 1 76.6432482349 71.25 50.0
473 1 0.0 73.5 50.0
474 1 70.1480577065 82.5 50.0
475 1 70.1480577065 84.0 50.0
476 1 71.4470958122 86.25 50.0
477 1 72.7461339179 87.0 50.0
478 1 75.3442101292 87.0 50.0
479 1 76.6432482349 86.25 50.0
480 1 0.0 84.0 50.0
481 1 0.0 82.5 50.0
482 1 76.6432482349 80.25 50.0
483 1 75.3442101292 79.5 50.0
484 1 72.7461339179 79.5 50.0
485 1 71.4470958122 71.25 50.0
486 1 70.1480577065 73.5 50.0
487 1 70.1480577065 75.0 50.0
488 1 71.4470958122 77.25 50.0
489 1 72.7461339179 78.0 50.0
490 1 75.3442101292 78.0 50.0
491 1 76.6432482349 77.25 50.0
492 1 0.0 75.0 50.0
493 1 76.6432482349 59.25 50.0
494 1 72.7461339179 24.0 50.0
495 1 0.0 57.0 50.0
496 1 76.6432482349 53.25 50.0
497 1 76.6432482349 35.25 50.0
498 1 75.3442101292 34.5 50.0
499 1 72.7461339179 34.5 50.0
500 1 71.4470958122 26.25 50.0
501 1 70.1480577065 28.5 50.0
502 1 70.1480577065 30.0 50.0
503 1 71.4470958122 32.25 50.0
504 1 72.7461339179 33.0 50.0
505 1 0.0 37.5 50.0
506 1 75.3442101292 33.0 50.0
507 1 0.0 30.0 50.0
508 1 0.0 28.5 50.0
509 1 76.6432482349 26.25 50.0
510 1 75.3442101292 25.5 50.0
511 1 72.7461339179 25.5 50.0
512 1 71.4470958122 17.25 50.0
513 1 70.1480577065 19.5 50.0
514 1 70.1480577065 21.0 50.0
515 1 76.6432482349 32.25 50.0
516 1 0.0 39.0 50.0
517 1 76.6432482349 41.25 50.0
518 1 75.3442101292 42.0 50.0
519 1 75.3442101292 52.5 50.0
520 1 72.7461339179 52.5 50.0
521 1 71.4470958122 44.25 50.0
522 1 70.1480577065 46.5 50.0
523 1 70.1480577065 48.0 50.0
524 1 71.4470958122 50.25 50.0
525 1 72.7461339179 51.0 50.0
526 1 75.3442101292 51.0 50.0
527 1 76.6432482349 50.25 50.0
528 1 0.0 48.0 50.0
529 1 0.0 46.5 50.0
530 1 76.6432482349 44.25 50.0
531 1 75.3442101292 43.5 50.0
532 1 72.7461339179 43.5 50.0
533 1 71.4470958122 35.25 50.0
534 1 70.1480577065 37.5 50.0
535 1 70.1480577065 39.0 50.0
536 1 71.4470958122 41.25 50.0
537 1 72.7461339179 42.0 50.0
538 1 0.0 55.5 50.0
539 1 59.7557528611 88.5 50.0
540 1 67.5499814952 48.0 50.0
541 1 63.6528671782 39.75 50.0
542 1 61.0547909668 50.25 50.0
543 1 62.3538290725 48.0 50.0
544 1 62.3538290725 46.5 50.0
545 1 61.0547909668 44.25 50.0
546 1 59.7557528611 43.5 50.0
547 1 57.1576766498 43.5 50.0
548 1 55.8586385441 35.25 50.0
549 1 54.5596004384 37.5 50.0
550 1 59.7557528611 51.0 50.0
551 1 54.5596004384 39.0 50.0
552 1 57.1576766498 42.0 50.0
553 1 59.7557528611 42.0 50.0
554 1 61.0547909668 41.25 50.0
555 1 62.3538290725 39.0 50.0
556 1 62.3538290725 37.5 50.0
557 1 61.0547909668 35.25 50.0
558 1 59.7557528611 34.5 50.0
559 1 57.1576766498 34.5 50.0
560 1 55.8586385441 41.25 50.0
561 1 57.1576766498 51.0 50.0
562 1 55.8586385441 50.25 50.0
563 1 54.5596004384 48.0 50.0
564 1 62.3538290725 66.0 50.0
565 1 62.3538290725 64.5 50.0
566 1 61.0547909668 62.25 50.0
567 1 59.7557528611 61.5 50.0
568 1 57.1576766498 61.5 50.0
569 1 55.8586385441 53.25 50.0
570 1 54.5596004384 55.5 50.0
571 1 54.5596004384 57.0 50.0
572 1 55.8586385441 59.25 50.0
573 1 57.1576766498 60.0 50.0
574 1 59.7557528611 60.0 50.0
575 1 61.0547909668 59.25 50.0
576 1 62.3538290725 57.0 50.0
577 1 62.3538290725 55.5 50.0
578 1 61.0547909668 53.25 50.0
579 1 59.7557528611 52.5 50.0
580 1 57.1576766498 52.5 50.0
581 1 55.8586385441 44.25 50.0
582 1 54.5596004384 46.5 50.0
583 1 55.8586385441 26.25 50.0
584 1 61.0547909668 68.25 50.0
585 1 54.5596004384 28.5 50.0
586 1 55.8586385441 32.25 50.0
587 1 55.8586385441 14.25 50.0
588 1 57.1576766498 15.0 50.0
589 1 59.7557528611 15.0 50.0
590 1 61.0547909668 14.25 50.0
591 1 62.3538290725 12.0 50.0
592 1 62.3538290725 10.5 50.0
593 1 61.0547909668 8.25 50.0
594 1 59.7557528611 7.5 50.0
595 1 54.5596004384 12.0 50.0
596 1 57.1576766498 7.5 50.0
597 1 54.5596004384 1.5 50.0
598 1 54.5596004384 3.0 50.0
599 1 55.8586385441 5.25 50.0
600 1 57.1576766498 6.0 50.0
601 1 59.7557528611 6.0 50.0
602 1 61.0547909668 5.25 50.0
603 1 62.3538290725 3.0 50.0
604 1 62.3538290725 1.5 50.0
605 1 55.8586385441 89.25 50.0
606 1 54.5596004384 10.5 50.0
607 1 55.8586385441 8.25 50.0
608 1 57.1576766498 16.5 50.0
609 1 57.1576766498 33.0 50.0
610 1 59.7557528611 33.0 50.0
611 1 61.0547909668 32.25 50.0
612 1 62.3538290725 30.0 50.0
613 1 62.3538290725 28.5 50.0
614 1 61.0547909668 26.25 50.0
615 1 59.7557528611 25.5 50.0
616 1 57.1576766498 25.5 50.0
617 1 55.8586385441 17.25 50.0
618 1 54.5596004384 19.5 50.0
619 1 54.5596004384 21.0 50.0
620 1 55.8586385441 23.25 50.0
621 1 57.1576766498 24.0 50.0
622 1 59.7557528611 24.0 50.0
623 1 61.0547909668 23.25 50.0
624 1 62.3538290725 21.0 50.0
625 1 62.3538290725 19.5 50.0
626 1 61.0547909668 17.25 50.0
627 1 59.7557528611 16.5 50.0
628 1 54.5596004384 30.0 50.0
629 1 64.9519052838 48.0 50.0
630 1 59.7557528611 69.0 50.0
631 1 55.8586385441 68.25 50.0
632 1 63.6528671782 21.75 50.0
633 1 62.3538290725 24.0 50.0
634 1 62.3538290725 25.5 50.0
635 1 63.6528671782 27.75 50.0
636 1 64.9519052838 28.5 50.0
637 1 67.5499814952 28.5 50.0
638 1 68.8490196009 27.75 50.0
639 1 70.1480577065 25.5 50.0
640 1 64.9519052838 30.0 50.0
641 1 70.1480577065 24.0 50.0
642 1 67.5499814952 21.0 50.0
643 1 64.9519052838 21.0 50.0
644 1 63.6528671782 12.75 50.0
645 1 62.3538290725 15.0 50.0
646 1 62.3538290725 16.5 50.0
647 1 63.6528671782 18.75 50.0
648 1 64.9519052838 19.5 50.0
649 1 67.5499814952 19.5 50.0
650 1 68.8490196009 21.75 50.0
651 1 67.5499814952 30.0 50.0
652 1 68.8490196009 30.75 50.0
653 1 70.1480577065 33.0 50.0
654 1 62.3538290725 42.0 50.0
655 1 62.3538290725 43.5 50.0
656 1 63.6528671782 45.75 50.0
657 1 64.9519052838 46.5 50.0
658 1 67.5499814952 46.5 50.0
659 1 68.8490196009 45.75 50.0
660 1 70.1480577065 43.5 50.0
661 1 70.1480577065 42.0 50.0
662 1 68.8490196009 39.75 50.0
663 1 67.5499814952 39.0 50.0
664 1 64.9519052838 39.0 50.0
665 1 63.6528671782 30.75 50.0
666 1 62.3538290725 33.0 50.0
667 1 62.3538290725 34.5 50.0
668 1 63.6528671782 36.75 50.0
669 1 64.9519052838 37.5 50.0
670 1 67.5499814952 37.5 50.0
671 1 68.8490196009 36.75 50.0
672 1 70.1480577065 34.5 50.0
673 1 68.8490196009 18.75 50.0
674 1 57.1576766498 69.0 50.0
675 1 70.1480577065 16.5 50.0
676 1 68.8490196009 12.75 50.0
677 1 61.0547909668 80.25 50.0
678 1 59.7557528611 79.5 50.0
679 1 57.1576766498 79.5 50.0
680 1 55.8586385441 71.25 50.0
681 1 54.5596004384 73.5 50.0
682 1 54.5596004384 75.0 50.0
683 1 55.8586385441 77.25 50.0
684 1 57.1576766498 78.0 50.0
685 1 62.3538290725 82.5 50.0
686 1 59.7557528611 78.0 50.0
687 1 62.3538290725 75.0 50.0
688 1 62.3538290725 73.5 50.0
689 1 61.0547909668 71.25 50.0
690 1 59.7557528611 70.5 50.0
691 1 57.1576766498 70.5 50.0
692 1 55.8586385441 62.25 50.0
693 1 54.5596004384 64.5 50.0
694 1 54.5596004384 66.0 50.0
695 1 61.0547909668 77.25 50.0
696 1 62.3538290725 84.0 50.0
697 1 61.0547909668 86.25 50.0
698 1 59.7557528611 87.0 50.0
699 1 67.5499814952 12.0 50.0
700 1 64.9519052838 12.0 50.0
701 1 63.6528671782 3.75 50.0
702 1 62.3538290725 6.0 50.0
703 1 62.3538290725 7.5 50.0
704 1 63.6528671782 9.75 50.0
705 1 64.9519052838 10.5 50.0
706 1 67.5499814952 10.5 50.0
707 1 68.8490196009 9.75 50.0
708 1 70.1480577065 7.5 50.0
709 1 70.1480577065 6.0 50.0
710 1 68.8490196009 3.75 50.0
711 1 67.5499814952 3.0 50.0
712 1 64.9519052838 3.0 50.0
713 1 55.8586385441 80.25 50.0
714 1 54.5596004384 82.5 50.0
715 1 54.5596004384 84.0 50.0
716 1 55.8586385441 86.25 50.0
717 1 57.1576766498 87.0 50.0
718 1 70.1480577065 15.0 50.0
719 1 33.7749907476 3.0 50.0
720 1 32.4759526419 84.75 50.0
721 1 18.1865334795 3.0 50.0
722 1 7.79422863406 75.0 50.0
723 1 9.09326673974 77.25 50.0
724 1 10.3923048454 78.0 50.0
725 1 12.9903810568 78.0 50.0
726 1 14.2894191624 77.25 50.0
727 1 15.5884572681 75.0 50.0
728 1 15.5884572681 73.5 50.0
729 1 7.79422863406 73.5 50.0
730 1 14.2894191624 71.25 50.0
731 1 10.3923048454 70.5 50.0
732 1 9.09326673974 62.25 50.0
733 1 7.79422863406 64.5 50.0
734 1 7.79422863406 66.0 50.0
735 1 9.09326673974 68.25 50.0
736 1 10.3923048454 69.0 50.0
737 1 12.9903810568 69.0 50.0
738 1 12.9903810568 70.5 50.0
739 1 9.09326673974 71.25 50.0
740 1 10.3923048454 79.5 50.0
741 1 12.9903810568 79.5 50.0
742 1 20.7846096908 10.5 50.0
743 1 22.0836477965 9.75 50.0
744 1 23.3826859022 7.5 50.0
745 1 23.3826859022 6.0 50.0
746 1 22.0836477965 3.75 50.0
747 1 20.7846096908 3.0 50.0
748 1 24.6817240079 80.25 50.0
749 1 9.09326673974 80.25 50.0
750 1 7.79422863406 82.5 50.0
751 1 7.79422863406 84.0 50.0
752 1 9.09326673974 86.25 50.0
753 1 10.3923048454 87.0 50.0
754 1 12.9903810568 87.0 50.0
755 1 14.2894191624 86.25 50.0
756 1 15.5884572681 84.0 50.0
757 1 15.5884572681 82.5 50.0
758 1 14.2894191624 80.25 50.0
759 1 14.2894191624 68.25 50.0
760 1 15.5884572681 66.0 50.0
761 1 15.5884572681 64.5 50.0
762 1 14.2894191624 62.25 50.0
763 1 15.5884572681 48.0 50.0
764 1 15.5884572681 46.5 50.0
765 1 14.2894191624 44.25 50.0
766 1 12.9903810568 43.5 50.0
767 1 10.3923048454 43.5 50.0
768 1 9.09326673974 35.25 50.0
769 1 7.79422863406 37.5 50.0
770 1 7.79422863406 39.0 50.0
771 1 9.09326673974 41.25 50.0
772 1 10.3923048454 42.0 50.0
773 1 12.9903810568 42.0 50.0
774 1 14.2894191624 41.25 50.0
775 1 15.5884572681 39.0 50.0
776 1 15.5884572681 37.5 50.0
777 1 14.2894191624 35.25 50.0
778 1 12.9903810568 34.5 50.0
779 1 10.3923048454 34.5 50.0
780 1 14.2894191624 50.25 50.0
781 1 18.1865334795 10.5 50.0
782 1 12.9903810568 51.0 50.0
783 1 9.09326673974 50.25 50.0
784 1 12.9903810568 61.5 50.0
785 1 10.3923048454 61.5 50.0
786 1 9.09326673974 53.25 50.0
787 1 7.79422863406 55.5 50.0
788 1 7.79422863406 57.0 50.0
789 1 9.09326673974 59.25 50.0
790 1 10.3923048454 60.0 50.0
791 1 12.9903810568 60.0 50.0
792 1 14.2894191624 59.25 50.0
793 1 15.5884572681 57.0 50.0
794 1 15.5884572681 55.5 50.0
795 1 14.2894191624 53.25 50.0
796 1 12.9903810568 52.5 50.0
797 1 10.3923048454 52.5 50.0
798 1 9.09326673974 44.25 50.0
799 1 7.79422863406 46.5 50.0
800 1 7.79422863406 48.0 50.0
801 1 10.3923048454 51.0 50.0
802 1 9.09326673974 26.25 50.0
803 1 16.8874953738 9.75 50.0
804 1 15.5884572681 6.0 50.0
805 1 16.8874953738 54.75 50.0
806 1 18.1865334795 55.5 50.0
807 1 20.7846096908 55.5 50.0
808 1 22.0836477965 54.75 50.0
809 1 23.3826859022 52.5 50.0
810 1 23.3826859022 51.0 50.0
811 1 22.0836477965 48.75 50.0
812 1 15.5884572681 52.5 50.0
813 1 20.7846096908 48.0 50.0
814 1 16.8874953738 39.75 50.0
815 1 15.5884572681 42.0 50.0
816 1 15.5884572681 43.5 50.0
817 1 16.8874953738 45.75 50.0
818 1 18.1865334795 46.5 50.0
819 1 20.7846096908 46.5 50.0
820 1 22.0836477965 45.75 50.0
821 1 18.1865334795 48.0 50.0
822 1 15.5884572681 51.0 50.0
823 1 16.8874953738 48.75 50.0
824 1 18.1865334795 57.0 50.0
825 1 22.0836477965 72.75 50.0
826 1 23.3826859022 70.5 50.0
827 1 23.3826859022 69.0 50.0
828 1 22.0836477965 66.75 50.0
829 1 20.7846096908 66.0 50.0
830 1 18.1865334795 66.0 50.0
831 1 16.8874953738 57.75 50.0
832 1 15.5884572681 60.0 50.0
833 1 15.5884572681 61.5 50.0
834 1 16.8874953738 63.75 50.0
835 1 18.1865334795 64.5 50.0
836 1 20.7846096908 64.5 50.0
837 1 22.0836477965 63.75 50.0
838 1 23.3826859022 61.5 50.0
839 1 23.3826859022 60.0 50.0
840 1 22.0836477965 57.75 50.0
841 1 20.7846096908 57.0 50.0
842 1 23.3826859022 43.5 50.0
843 1 23.3826859022 42.0 50.0
844 1 22.0836477965 39.75 50.0
845 1 20.7846096908 39.0 50.0
846 1 23.3826859022 24.0 50.0
847 1 22.0836477965 21.75 50.0
848 1 20.7846096908 21.0 50.0
849 1 18.1865334795 21.0 50.0
850 1 16.8874953738 12.75 50.0
851 1 15.5884572681 15.0 50.0
852 1 15.5884572681 16.5 50.0
853 1 16.8874953738 18.75 50.0
854 1 18.1865334795 19.5 50.0
855 1 20.7846096908 19.5 50.0
856 1 22.0836477965 18.75 50.0
857 1 23.3826859022 16.5 50.0
858 1 23.3826859022 15.0 50.0
859 1 22.0836477965 12.75 50.0
860 1 20.7846096908 12.0 50.0
861 1 18.1865334795 12.0 50.0
862 1 16.8874953738 3.75 50.0
863 1 23.3826859022 25.5 50.0
864 1 15.5884572681 7.5 50.0
865 1 22.0836477965 27.75 50.0
866 1 18.1865334795 28.5 50.0
867 1 18.1865334795 39.0 50.0
868 1 16.8874953738 30.75 50.0
869 1 15.5884572681 33.0 50.0
870 1 15.5884572681 34.5 50.0
871 1 16.8874953738 36.75 50.0
872 1 18.1865334795 37.5 50.0
873 1 20.7846096908 37.5 50.0
874 1 22.0836477965 36.75 50.0
875 1 23.3826859022 34.5 50.0
876 1 23.3826859022 33.0 50.0
877 1 22.0836477965 30.75 50.0
878 1 20.7846096908 30.0 50.0
879 1 18.1865334795 30.0 50.0
880 1 16.8874953738 21.75 50.0
881 1 15.5884572681 24.0 50.0
882 1 15.5884572681 25.5 50.0
883 1 16.8874953738 27.75 50.0
884 1 20.7846096908 28.5 50.0
885 1 7.79422863406 28.5 50.0
886 1 7.79422863406 30.0 50.0
887 1 9.09326673974 32.25 50.0
888 1 0.0 42.0 50.0
889 1 0.0 43.5 50.0
890 1 1.29903810568 45.75 50.0
891 1 2.59807621135 46.5 50.0
892 1 5.19615242271 46.5 50.0
893 1 6.49519052838 45.75 50.0
894 1 7.79422863406 43.5 50.0
895 1 1.29903810568 39.75 50.0
896 1 7.79422863406 42.0 50.0
897 1 5.19615242271 39.0 50.0
898 1 2.59807621135 39.0 50.0
899 1 1.29903810568 30.75 50.0
900 1 0.0 33.0 50.0
901 1 0.0 34.5 50.0
902 1 1.29903810568 36.75 50.0
903 1 2.59807621135 37.5 50.0
904 1 6.49519052838 39.75 50.0
905 1 2.59807621135 48.0 50.0
906 1 5.19615242271 48.0 50.0
907 1 6.49519052838 48.75 50.0
908 1 2.59807621135 64.5 50.0
909 1 5.19615242271 64.5 50.0
910 1 6.49519052838 63.75 50.0
911 1 7.79422863406 61.5 50.0
912 1 7.79422863406 60.0 50.0
913 1 6.49519052838 57.75 50.0
914 1 5.19615242271 57.0 50.0
915 1 2.59807621135 57.0 50.0
916 1 1.29903810568 48.75 50.0
917 1 0.0 51.0 50.0
918 1 0.0 52.5 50.0
919 1 1.29903810568 54.75 50.0
920 1 2.59807621135 55.5 50.0
921 1 5.19615242271 55.5 50.0
922 1 6.49519052838 54.75 50.0
923 1 7.79422863406 52.5 50.0
924 1 7.79422863406 51.0 50.0
925 1 5.19615242271 37.5 50.0
926 1 6.49519052838 36.75 50.0
927 1 7.79422863406 34.5 50.0
928 1 7.79422863406 33.0 50.0
929 1 6.49519052838 18.75 50.0
930 1 7.79422863406 16.5 50.0
931 1 7.79422863406 15.0 50.0
932 1 6.49519052838 12.75 50.0
933 1 5.19615242271 12.0 50.0
934 1 2.59807621135 12.0 50.0
935 1 1.29903810568 3.75 50.0
936 1 0.0 6.0 50.0
937 1 0.0 7.5 50.0
938 1 1.29903810568 9.75 50.0
939 1 2.59807621135 10.5 50.0
940 1 5.19615242271 10.5 50.0
941 1 6.49519052838 9.75 50.0
942 1 7.79422863406 7.5 50.0
943 1 7.79422863406 6.0 50.0
944 1 6.49519052838 3.75 50.0
945 1 5.19615242271 3.0 50.0
946 1 5.19615242271 19.5 50.0
947 1 1.29903810568 63.75 50.0
948 1 2.59807621135 19.5 50.0
949 1 0.0 16.5 50.0
950 1 6.49519052838 30.75 50.0
951 1 5.19615242271 30.0 50.0
952 1 2.59807621135 30.0 50.0
953 1 1.29903810568 21.75 50.0
954 1 0.0 24.0 50.0
955 1 0.0 25.5 50.0
956 1 1.29903810568 27.75 50.0
957 1 2.59807621135 28.5 50.0
958 1 5.19615242271 28.5 50.0
959 1 6.49519052838 27.75 50.0
960 1 7.79422863406 25.5 50.0
961 1 7.79422863406 24.0 50.0
962 1 6.49519052838 21.75 50.0
963 1 5.19615242271 21.0 50.0
964 1 2.59807621135 21.0 50.0
965 1 1.29903810568 12.75 50.0
966 1 0.0 15.0 50.0
967 1 1.29903810568 18.75 50.0
968 1 0.0 61.5 50.0
969 1 0.0 60.0 50.0
970 1 1.29903810568 57.75 50.0
971 1 7.79422863406 10.5 50.0
972 1 7.79422863406 12.0 50.0
973 1 9.09326673974 14.25 50.0
974 1 10.3923048454 15.0 50.0
975 1 12.9903810568 15.0 50.0
976 1 14.2894191624 14.25 50.0
977 1 15.5884572681 12.0 50.0
978 1 15.5884572681 10.5 50.0
979 1 14.2894191624 8.25 50.0
980 1 12.9903810568 7.5 50.0
981 1 10.3923048454 7.5 50.0
982 1 9.09326673974 89.25 50.0
983 1 7.79422863406 1.5 50.0
984 1 7.79422863406 3.0 50.0
985 1 9.09326673974 5.25 50.0
986 1 10.3923048454 6.0 50.0
987 1 12.9903810568 6.0 50.0
988 1 9.09326673974 8.25 50.0
989 1 14.2894191624 5.25 50.0
990 1 10.3923048454 16.5 50.0
991 1 14.2894191624 17.25 50.0
992 1 10.3923048454 33.0 50.0
993 1 12.9903810568 33.0 50.0
994 1 14.2894191624 32.25 50.0
995 1 15.5884572681 30.0 50.0
996 1 15.5884572681 28.5 50.0
997 1 14.2894191624 26.25 50.0
998 1 12.9903810568 25.5 50.0
999 1 10.3923048454 25.5 50.0
1000 1 9.09326673974 17.25 50.0
1001 1 7.79422863406 19.5 50.0
1002 1 7.79422863406 21.0 50.0
1003 1 9.09326673974 23.25 50.0
1004 1 10.3923048454 24.0 50.0
1005 1 12.9903810568 24.0 50.0
1006 1 14.2894191624 23.25 50.0