# Diamond(001) cell with dimension 228 x 4 x 4 and a = 5.43
     29184  atoms
         1  atom types

 0.  1238.03999999999996  xlo xhi
 0.    21.72000000000000  ylo yhi
 0.    21.72000000000000  zlo zhi

Masses

1 28.086

Atoms

1 1     0.00000000000000     0.00000000000000     0.00000000000000
2 1     2.71500000000000     2.71500000000000     0.00000000000000
3 1     1.35750000000000     1.35750000000000     1.35750000000000
4 1     4.07250000000000     4.07250000000000     1.35750000000000
5 1     2.71500000000000     0.00000000000000     2.71500000000000
6 1     0.00000000000000     2.71500000000000     2.71500000000000
7 1     4.07250000000000     1.35750000000000     4.07250000000000
8 1     1.35750000000000     4.07250000000000     4.07250000000000
9 1     5.43000000000000     0.00000000000000     0.00000000000000
10 1     8.14500000000000     2.71500000000000     0.00000000000000
11 1     6.78750000000000     1.35750000000000     1.35750000000000
12 1     9.50250000000000     4.07250000000000     1.35750000000000
13 1     8.14500000000000     0.00000000000000     2.71500000000000
14 1     5.43000000000000     2.71500000000000     2.71500000000000
15 1     9.50250000000000     1.35750000000000     4.07250000000000
16 1     6.78750000000000     4.07250000000000     4.07250000000000
17 1    10.86000000000000     0.00000000000000     0.00000000000000
18 1    13.57500000000000     2.71500000000000     0.00000000000000
19 1    12.21750000000000     1.35750000000000     1.35750000000000
20 1    14.93250000000000     4.07250000000000     1.35750000000000
21 1    13.57500000000000     0.00000000000000     2.71500000000000
22 1    10.86000000000000     2.71500000000000     2.71500000000000
23 1    14.93250000000000     1.35750000000000     4.07250000000000
24 1    12.21750000000000     4.07250000000000     4.07250000000000
25 1    16.29000000000000     0.00000000000000     0.00000000000000
26 1    19.00500000000000     2.71500000000000     0.00000000000000
27 1    17.64750000000000     1.35750000000000     1.35750000000000
28 1    20.36250000000000     4.07250000000000     1.35750000000000
29 1    19.00500000000000     0.00000000000000     2.71500000000000
30 1    16.29000000000000     2.71500000000000     2.71500000000000
31 1    20.36250000000000     1.35750000000000     4.07250000000000
32 1    17.64750000000000     4.07250000000000     4.07250000000000
33 1    21.72000000000000     0.00000000000000     0.00000000000000
34 1    24.43500000000000     2.71500000000000     0.00000000000000
35 1    23.07750000000000     1.35750000000000     1.35750000000000
36 1    25.79250000000000     4.07250000000000     1.35750000000000
37 1    24.43500000000000     0.00000000000000     2.71500000000000
38 1    21.72000000000000     2.71500000000000     2.71500000000000
39 1    25.79250000000000     1.35750000000000     4.07250000000000
40 1    23.07750000000000     4.07250000000000     4.07250000000000
41 1    27.15000000000000     0.00000000000000     0.00000000000000
42 1    29.86500000000000     2.71500000000000     0.00000000000000
43 1    28.50750000000000     1.35750000000000     1.35750000000000
44 1    31.22250000000000     4.07250000000000     1.35750000000000
45 1    29.86500000000000     0.00000000000000     2.71500000000000
46 1    27.15000000000000     2.71500000000000     2.71500000000000
47 1    31.22250000000000     1.35750000000000     4.07250000000000
48 1    28.50750000000000     4.07250000000000     4.07250000000000
49 1    32.58000000000000     0.00000000000000     0.00000000000000
50 1    35.29500000000000     2.71500000000000     0.00000000000000
51 1    33.93750000000000     1.35750000000000     1.35750000000000
52 1    36.65250000000000     4.07250000000000     1.35750000000000
53 1    35.29500000000000     0.00000000000000     2.71500000000000
54 1    32.58000000000000     2.71500000000000     2.71500000000000
55 1    36.65250000000000     1.35750000000000     4.07250000000000
56 1    33.93750000000000     4.07250000000000     4.07250000000000
57 1    38.01000000000000     0.00000000000000     0.00000000000000
58 1    40.72499999999999     2.71500000000000     0.00000000000000
59 1    39.36750000000000     1.35750000000000     1.35750000000000
60 1    42.08250000000000     4.07250000000000     1.35750000000000
61 1    40.72499999999999     0.00000000000000     2.71500000000000
62 1    38.01000000000000     2.71500000000000     2.71500000000000
63 1    42.08250000000000     1.35750000000000     4.07250000000000
64 1    39.36750000000000     4.07250000000000     4.07250000000000
65 1    43.44000000000000     0.00000000000000     0.00000000000000
66 1    46.15500000000000     2.71500000000000     0.00000000000000
67 1    44.79750000000000     1.35750000000000     1.35750000000000
68 1    47.51250000000000     4.07250000000000     1.35750000000000
69 1    46.15500000000000     0.00000000000000     2.71500000000000
70 1    43.44000000000000     2.71500000000000     2.71500000000000
71 1    47.51250000000000     1.35750000000000     4.07250000000000
72 1    44.79750000000000     4.07250000000000     4.07250000000000
73 1    48.87000000000000     0.00000000000000     0.00000000000000
74 1    51.58499999999999     2.71500000000000     0.00000000000000
75 1    50.22750000000000     1.35750000000000     1.35750000000000
76 1    52.94250000000000     4.07250000000000     1.35750000000000
77 1    51.58499999999999     0.00000000000000     2.71500000000000
78 1    48.87000000000000     2.71500000000000     2.71500000000000
79 1    52.94250000000000     1.35750000000000     4.07250000000000
80 1    50.22750000000000     4.07250000000000     4.07250000000000
81 1    54.30000000000000     0.00000000000000     0.00000000000000
82 1    57.01500000000000     2.71500000000000     0.00000000000000
83 1    55.65750000000000     1.35750000000000     1.35750000000000
84 1    58.37250000000000     4.07250000000000     1.35750000000000
85 1    57.01500000000000     0.00000000000000     2.71500000000000
86 1    54.30000000000000     2.71500000000000     2.71500000000000
87 1    58.37250000000000     1.35750000000000     4.07250000000000
88 1    55.65750000000000     4.07250000000000     4.07250000000000
89 1    59.73000000000000     0.00000000000000     0.00000000000000
90 1    62.44499999999999     2.71500000000000     0.00000000000000
91 1    61.08750000000000     1.35750000000000     1.35750000000000
92 1    63.80249999999999     4.07250000000000     1.35750000000000
93 1    62.44499999999999     0.00000000000000     2.71500000000000
94 1    59.73000000000000     2.71500000000000     2.71500000000000
95 1    63.80249999999999     1.35750000000000     4.07250000000000
96 1    61.08750000000000     4.07250000000000     4.07250000000000
97 1    65.16000000000000     0.00000000000000     0.00000000000000
98 1    67.87500000000000     2.71500000000000     0.00000000000000
99 1    66.51750000000000     1.35750000000000     1.35750000000000
100 1    69.23250000000000     4.07250000000000     1.35750000000000
101 1    67.87500000000000     0.00000000000000     2.71500000000000
102 1    65.16000000000000     2.71500000000000     2.71500000000000
103 1    69.23250000000000     1.35750000000000     4.07250000000000
104 1    66.51750000000000     4.07250000000000     4.07250000000000
105 1    70.59000000000000     0.00000000000000     0.00000000000000
106 1    73.30499999999999     2.71500000000000     0.00000000000000
107 1    71.94749999999999     1.35750000000000     1.35750000000000
108 1    74.66249999999999     4.07250000000000     1.35750000000000
109 1    73.30499999999999     0.00000000000000     2.71500000000000
110 1    70.59000000000000     2.71500000000000     2.71500000000000
111 1    74.66249999999999     1.35750000000000     4.07250000000000
112 1    71.94749999999999     4.07250000000000     4.07250000000000
113 1    76.02000000000000     0.00000000000000     0.00000000000000
114 1    78.73500000000000     2.71500000000000     0.00000000000000
115 1    77.37750000000000     1.35750000000000     1.35750000000000
116 1    80.09250000000000     4.07250000000000     1.35750000000000
117 1    78.73500000000000     0.00000000000000     2.71500000000000
118 1    76.02000000000000     2.71500000000000     2.71500000000000
119 1    80.09250000000000     1.35750000000000     4.07250000000000
120 1    77.37750000000000     4.07250000000000     4.07250000000000
121 1    81.44999999999999     0.00000000000000     0.00000000000000
122 1    84.16499999999999     2.71500000000000     0.00000000000000
123 1    82.80749999999999     1.35750000000000     1.35750000000000
124 1    85.52249999999999     4.07250000000000     1.35750000000000
125 1    84.16499999999999     0.00000000000000     2.71500000000000
126 1    81.44999999999999     2.71500000000000     2.71500000000000
127 1    85.52249999999999     1.35750000000000     4.07250000000000
128 1    82.80749999999999     4.07250000000000     4.07250000000000
129 1    86.88000000000000     0.00000000000000     0.00000000000000
130 1    89.59500000000000     2.71500000000000     0.00000000000000
131 1    88.23750000000000     1.35750000000000     1.35750000000000
132 1    90.95250000000000     4.07250000000000     1.35750000000000
133 1    89.59500000000000     0.00000000000000     2.71500000000000
134 1    86.88000000000000     2.71500000000000     2.71500000000000
135 1    90.95250000000000     1.35750000000000     4.07250000000000
136 1    88.23750000000000     4.07250000000000     4.07250000000000
137 1    92.31000000000000     0.00000000000000     0.00000000000000
138 1    95.02499999999999     2.71500000000000     0.00000000000000
139 1    93.66749999999999     1.35750000000000     1.35750000000000
140 1    96.38249999999999     4.07250000000000     1.35750000000000
141 1    95.02499999999999     0.00000000000000     2.71500000000000
142 1    92.31000000000000     2.71500000000000     2.71500000000000
143 1    96.38249999999999     1.35750000000000     4.07250000000000
144 1    93.66749999999999     4.07250000000000     4.07250000000000
145 1    97.73999999999999     0.00000000000000     0.00000000000000
146 1   100.45500000000000     2.71500000000000     0.00000000000000
147 1    99.09750000000000     1.35750000000000     1.35750000000000
148 1   101.81250000000000     4.07250000000000     1.35750000000000
149 1   100.45500000000000     0.00000000000000     2.71500000000000
150 1    97.73999999999999     2.71500000000000     2.71500000000000
151 1   101.81250000000000     1.35750000000000     4.07250000000000
152 1    99.09750000000000     4.07250000000000     4.07250000000000
153 1   103.16999999999999     0.00000000000000     0.00000000000000
154 1   105.88499999999999     2.71500000000000     0.00000000000000
155 1   104.52749999999999     1.35750000000000     1.35750000000000
156 1   107.24249999999999     4.07250000000000     1.35750000000000
157 1   105.88499999999999     0.00000000000000     2.71500000000000
158 1   103.16999999999999     2.71500000000000     2.71500000000000
159 1   107.24249999999999     1.35750000000000     4.07250000000000
160 1   104.52749999999999     4.07250000000000     4.07250000000000
161 1   108.59999999999999     0.00000000000000     0.00000000000000
162 1   111.31500000000000     2.71500000000000     0.00000000000000
163 1   109.95750000000000     1.35750000000000     1.35750000000000
164 1   112.67250000000000     4.07250000000000     1.35750000000000
165 1   111.31500000000000     0.00000000000000     2.71500000000000
166 1   108.59999999999999     2.71500000000000     2.71500000000000
167 1   112.67250000000000     1.35750000000000     4.07250000000000
168 1   109.95750000000000     4.07250000000000     4.07250000000000
169 1   114.03000000000000     0.00000000000000     0.00000000000000
170 1   116.74499999999999     2.71500000000000     0.00000000000000
171 1   115.38749999999999     1.35750000000000     1.35750000000000
172 1   118.10249999999999     4.07250000000000     1.35750000000000
173 1   116.74499999999999     0.00000000000000     2.71500000000000
174 1   114.03000000000000     2.71500000000000     2.71500000000000
175 1   118.10249999999999     1.35750000000000     4.07250000000000
176 1   115.38749999999999     4.07250000000000     4.07250000000000
177 1   119.45999999999999     0.00000000000000     0.00000000000000
178 1   122.17500000000000     2.71500000000000     0.00000000000000
179 1   120.81750000000000     1.35750000000000     1.35750000000000
180 1   123.53250000000000     4.07250000000000     1.35750000000000
181 1   122.17500000000000     0.00000000000000     2.71500000000000
182 1   119.45999999999999     2.71500000000000     2.71500000000000
183 1   123.53250000000000     1.35750000000000     4.07250000000000
184 1   120.81750000000000     4.07250000000000     4.07250000000000
185 1   124.88999999999999     0.00000000000000     0.00000000000000
186 1   127.60499999999999     2.71500000000000     0.00000000000000
187 1   126.24749999999999     1.35750000000000     1.35750000000000
188 1   128.96250000000001     4.07250000000000     1.35750000000000
189 1   127.60499999999999     0.00000000000000     2.71500000000000
190 1   124.88999999999999     2.71500000000000     2.71500000000000
191 1   128.96250000000001     1.35750000000000     4.07250000000000
192 1   126.24749999999999     4.07250000000000     4.07250000000000
193 1   130.31999999999999     0.00000000000000     0.00000000000000
194 1   133.03500000000000     2.71500000000000     0.00000000000000
195 1   131.67749999999998     1.35750000000000     1.35750000000000
196 1   134.39249999999998     4.07250000000000     1.35750000000000
197 1   133.03500000000000     0.00000000000000     2.71500000000000
198 1   130.31999999999999     2.71500000000000     2.71500000000000
199 1   134.39249999999998     1.35750000000000     4.07250000000000
200 1   131.67749999999998     4.07250000000000     4.07250000000000
201 1   135.75000000000000     0.00000000000000     0.00000000000000
202 1   138.46500000000000     2.71500000000000     0.00000000000000
203 1   137.10749999999999     1.35750000000000     1.35750000000000
204 1   139.82249999999999     4.07250000000000     1.35750000000000
205 1   138.46500000000000     0.00000000000000     2.71500000000000
206 1   135.75000000000000     2.71500000000000     2.71500000000000
207 1   139.82249999999999     1.35750000000000     4.07250000000000
208 1   137.10749999999999     4.07250000000000     4.07250000000000
209 1   141.18000000000001     0.00000000000000     0.00000000000000
210 1   143.89499999999998     2.71500000000000     0.00000000000000
211 1   142.53749999999999     1.35750000000000     1.35750000000000
212 1   145.25250000000000     4.07250000000000     1.35750000000000
213 1   143.89499999999998     0.00000000000000     2.71500000000000
214 1   141.18000000000001     2.71500000000000     2.71500000000000
215 1   145.25250000000000     1.35750000000000     4.07250000000000
216 1   142.53749999999999     4.07250000000000     4.07250000000000
217 1   146.60999999999999     0.00000000000000     0.00000000000000
218 1   149.32499999999999     2.71500000000000     0.00000000000000
219 1   147.96750000000000     1.35750000000000     1.35750000000000
220 1   150.68250000000000     4.07250000000000     1.35750000000000
221 1   149.32499999999999     0.00000000000000     2.71500000000000
222 1   146.60999999999999     2.71500000000000     2.71500000000000
223 1   150.68250000000000     1.35750000000000     4.07250000000000
224 1   147.96750000000000     4.07250000000000     4.07250000000000
225 1   152.03999999999999     0.00000000000000     0.00000000000000
226 1   154.75500000000000     2.71500000000000     0.00000000000000
227 1   153.39749999999998     1.35750000000000     1.35750000000000
228 1   156.11249999999998     4.07250000000000     1.35750000000000
229 1   154.75500000000000     0.00000000000000     2.71500000000000
230 1   152.03999999999999     2.71500000000000     2.71500000000000
231 1   156.11249999999998     1.35750000000000     4.07250000000000
232 1   153.39749999999998     4.07250000000000     4.07250000000000
233 1   157.47000000000000     0.00000000000000     0.00000000000000
234 1   160.18500000000000     2.71500000000000     0.00000000000000
235 1   158.82749999999999     1.35750000000000     1.35750000000000
236 1   161.54249999999999     4.07250000000000     1.35750000000000
237 1   160.18500000000000     0.00000000000000     2.71500000000000
238 1   157.47000000000000     2.71500000000000     2.71500000000000
239 1   161.54249999999999     1.35750000000000     4.07250000000000
240 1   158.82749999999999     4.07250000000000     4.07250000000000
241 1   162.89999999999998     0.00000000000000     0.00000000000000
242 1   165.61499999999998     2.71500000000000     0.00000000000000
243 1   164.25749999999999     1.35750000000000     1.35750000000000
244 1   166.97250000000000     4.07250000000000     1.35750000000000
245 1   165.61499999999998     0.00000000000000     2.71500000000000
246 1   162.89999999999998     2.71500000000000     2.71500000000000
247 1   166.97250000000000     1.35750000000000     4.07250000000000
248 1   164.25749999999999     4.07250000000000     4.07250000000000
249 1   168.32999999999998     0.00000000000000     0.00000000000000
250 1   171.04499999999999     2.71500000000000     0.00000000000000
251 1   169.68750000000000     1.35750000000000     1.35750000000000
252 1   172.40250000000000     4.07250000000000     1.35750000000000
253 1   171.04499999999999     0.00000000000000     2.71500000000000
254 1   168.32999999999998     2.71500000000000     2.71500000000000
255 1   172.40250000000000     1.35750000000000     4.07250000000000
256 1   169.68750000000000     4.07250000000000     4.07250000000000
257 1   173.75999999999999     0.00000000000000     0.00000000000000
258 1   176.47499999999999     2.71500000000000     0.00000000000000
259 1   175.11749999999998     1.35750000000000     1.35750000000000
260 1   177.83249999999998     4.07250000000000     1.35750000000000
261 1   176.47499999999999     0.00000000000000     2.71500000000000
262 1   173.75999999999999     2.71500000000000     2.71500000000000
263 1   177.83249999999998     1.35750000000000     4.07250000000000
264 1   175.11749999999998     4.07250000000000     4.07250000000000
265 1   179.19000000000000     0.00000000000000     0.00000000000000
266 1   181.90500000000000     2.71500000000000     0.00000000000000
267 1   180.54749999999999     1.35750000000000     1.35750000000000
268 1   183.26249999999999     4.07250000000000     1.35750000000000
269 1   181.90500000000000     0.00000000000000     2.71500000000000
270 1   179.19000000000000     2.71500000000000     2.71500000000000
271 1   183.26249999999999     1.35750000000000     4.07250000000000
272 1   180.54749999999999     4.07250000000000     4.07250000000000
273 1   184.62000000000000     0.00000000000000     0.00000000000000
274 1   187.33499999999998     2.71500000000000     0.00000000000000
275 1   185.97749999999999     1.35750000000000     1.35750000000000
276 1   188.69250000000000     4.07250000000000     1.35750000000000
277 1   187.33499999999998     0.00000000000000     2.71500000000000
278 1   184.62000000000000     2.71500000000000     2.71500000000000
279 1   188.69250000000000     1.35750000000000     4.07250000000000
280 1   185.97749999999999     4.07250000000000     4.07250000000000
281 1   190.04999999999998     0.00000000000000     0.00000000000000
282 1   192.76499999999999     2.71500000000000     0.00000000000000
283 1   191.40750000000000     1.35750000000000     1.35750000000000
284 1   194.12250000000000     4.07250000000000     1.35750000000000
285 1   192.76499999999999     0.00000000000000     2.71500000000000
286 1   190.04999999999998     2.71500000000000     2.71500000000000
287 1   194.12250000000000     1.35750000000000     4.07250000000000
288 1   191.40750000000000     4.07250000000000     4.07250000000000
289 1   195.47999999999999     0.00000000000000     0.00000000000000
290 1   198.19499999999999     2.71500000000000     0.00000000000000
291 1   196.83749999999998     1.35750000000000     1.35750000000000
292 1   199.55249999999998     4.07250000000000     1.35750000000000
293 1   198.19499999999999     0.00000000000000     2.71500000000000
294 1   195.47999999999999     2.71500000000000     2.71500000000000
295 1   199.55249999999998     1.35750000000000     4.07250000000000
296 1   196.83749999999998     4.07250000000000     4.07250000000000
297 1   200.91000000000000     0.00000000000000     0.00000000000000
298 1   203.62500000000000     2.71500000000000     0.00000000000000
299 1   202.26749999999998     1.35750000000000     1.35750000000000
300 1   204.98249999999999     4.07250000000000     1.35750000000000
301 1   203.62500000000000     0.00000000000000     2.71500000000000
302 1   200.91000000000000     2.71500000000000     2.71500000000000
303 1   204.98249999999999     1.35750000000000     4.07250000000000
304 1   202.26749999999998     4.07250000000000     4.07250000000000
305 1   206.33999999999997     0.00000000000000     0.00000000000000
306 1   209.05499999999998     2.71500000000000     0.00000000000000
307 1   207.69749999999999     1.35750000000000     1.35750000000000
308 1   210.41249999999999     4.07250000000000     1.35750000000000
309 1   209.05499999999998     0.00000000000000     2.71500000000000
310 1   206.33999999999997     2.71500000000000     2.71500000000000
311 1   210.41249999999999     1.35750000000000     4.07250000000000
312 1   207.69749999999999     4.07250000000000     4.07250000000000
313 1   211.76999999999998     0.00000000000000     0.00000000000000
314 1   214.48499999999999     2.71500000000000     0.00000000000000
315 1   213.12750000000000     1.35750000000000     1.35750000000000
316 1   215.84250000000000     4.07250000000000     1.35750000000000
317 1   214.48499999999999     0.00000000000000     2.71500000000000
318 1   211.76999999999998     2.71500000000000     2.71500000000000
319 1   215.84250000000000     1.35750000000000     4.07250000000000
320 1   213.12750000000000     4.07250000000000     4.07250000000000
321 1   217.19999999999999     0.00000000000000     0.00000000000000
322 1   219.91499999999999     2.71500000000000     0.00000000000000
323 1   218.55749999999998     1.35750000000000     1.35750000000000
324 1   221.27249999999998     4.07250000000000     1.35750000000000
325 1   219.91499999999999     0.00000000000000     2.71500000000000
326 1   217.19999999999999     2.71500000000000     2.71500000000000
327 1   221.27249999999998     1.35750000000000     4.07250000000000
328 1   218.55749999999998     4.07250000000000     4.07250000000000
329 1   222.63000000000000     0.00000000000000     0.00000000000000
330 1   225.34500000000000     2.71500000000000     0.00000000000000
331 1   223.98749999999998     1.35750000000000     1.35750000000000
332 1   226.70249999999999     4.07250000000000     1.35750000000000
333 1   225.34500000000000     0.00000000000000     2.71500000000000
334 1   222.63000000000000     2.71500000000000     2.71500000000000
335 1   226.70249999999999     1.35750000000000     4.07250000000000
336 1   223.98749999999998     4.07250000000000     4.07250000000000
337 1   228.06000000000000     0.00000000000000     0.00000000000000
338 1   230.77499999999998     2.71500000000000     0.00000000000000
339 1   229.41749999999999     1.35750000000000     1.35750000000000
340 1   232.13249999999999     4.07250000000000     1.35750000000000
341 1   230.77499999999998     0.00000000000000     2.71500000000000
342 1   228.06000000000000     2.71500000000000     2.71500000000000
343 1   232.13249999999999     1.35750000000000     4.07250000000000
344 1   229.41749999999999     4.07250000000000     4.07250000000000
345 1   233.48999999999998     0.00000000000000     0.00000000000000
346 1   236.20499999999998     2.71500000000000     0.00000000000000
347 1   234.84750000000000     1.35750000000000     1.35750000000000
348 1   237.56250000000000     4.07250000000000     1.35750000000000
349 1   236.20499999999998     0.00000000000000     2.71500000000000
350 1   233.48999999999998     2.71500000000000     2.71500000000000
351 1   237.56250000000000     1.35750000000000     4.07250000000000
352 1   234.84750000000000     4.07250000000000     4.07250000000000
353 1   238.91999999999999     0.00000000000000     0.00000000000000
354 1   241.63499999999999     2.71500000000000     0.00000000000000
355 1   240.27749999999997     1.35750000000000     1.35750000000000
356 1   242.99249999999998     4.07250000000000     1.35750000000000
357 1   241.63499999999999     0.00000000000000     2.71500000000000
358 1   238.91999999999999     2.71500000000000     2.71500000000000
359 1   242.99249999999998     1.35750000000000     4.07250000000000
360 1   240.27749999999997     4.07250000000000     4.07250000000000
361 1   244.34999999999999     0.00000000000000     0.00000000000000
362 1   247.06500000000000     2.71500000000000     0.00000000000000
363 1   245.70749999999998     1.35750000000000     1.35750000000000
364 1   248.42249999999999     4.07250000000000     1.35750000000000
365 1   247.06500000000000     0.00000000000000     2.71500000000000
366 1   244.34999999999999     2.71500000000000     2.71500000000000
367 1   248.42249999999999     1.35750000000000     4.07250000000000
368 1   245.70749999999998     4.07250000000000     4.07250000000000
369 1   249.77999999999997     0.00000000000000     0.00000000000000
370 1   252.49499999999998     2.71500000000000     0.00000000000000
371 1   251.13749999999999     1.35750000000000     1.35750000000000
372 1   253.85249999999999     4.07250000000000     1.35750000000000
373 1   252.49499999999998     0.00000000000000     2.71500000000000
374 1   249.77999999999997     2.71500000000000     2.71500000000000
375 1   253.85249999999999     1.35750000000000     4.07250000000000
376 1   251.13749999999999     4.07250000000000     4.07250000000000
377 1   255.20999999999998     0.00000000000000     0.00000000000000
378 1   257.92500000000001     2.71500000000000     0.00000000000000
379 1   256.56750000000000     1.35750000000000     1.35750000000000
380 1   259.28249999999997     4.07250000000000     1.35750000000000
381 1   257.92500000000001     0.00000000000000     2.71500000000000
382 1   255.20999999999998     2.71500000000000     2.71500000000000
383 1   259.28249999999997     1.35750000000000     4.07250000000000
384 1   256.56750000000000     4.07250000000000     4.07250000000000
385 1   260.63999999999999     0.00000000000000     0.00000000000000
386 1   263.35499999999996     2.71500000000000     0.00000000000000
387 1   261.99750000000000     1.35750000000000     1.35750000000000
388 1   264.71249999999998     4.07250000000000     1.35750000000000
389 1   263.35499999999996     0.00000000000000     2.71500000000000
390 1   260.63999999999999     2.71500000000000     2.71500000000000
391 1   264.71249999999998     1.35750000000000     4.07250000000000
392 1   261.99750000000000     4.07250000000000     4.07250000000000
393 1   266.06999999999999     0.00000000000000     0.00000000000000
394 1   268.78499999999997     2.71500000000000     0.00000000000000
395 1   267.42750000000001     1.35750000000000     1.35750000000000
396 1   270.14249999999998     4.07250000000000     1.35750000000000
397 1   268.78499999999997     0.00000000000000     2.71500000000000
398 1   266.06999999999999     2.71500000000000     2.71500000000000
399 1   270.14249999999998     1.35750000000000     4.07250000000000
400 1   267.42750000000001     4.07250000000000     4.07250000000000
401 1   271.50000000000000     0.00000000000000     0.00000000000000
402 1   274.21499999999997     2.71500000000000     0.00000000000000
403 1   272.85749999999996     1.35750000000000     1.35750000000000
404 1   275.57249999999999     4.07250000000000     1.35750000000000
405 1   274.21499999999997     0.00000000000000     2.71500000000000
406 1   271.50000000000000     2.71500000000000     2.71500000000000
407 1   275.57249999999999     1.35750000000000     4.07250000000000
408 1   272.85749999999996     4.07250000000000     4.07250000000000
409 1   276.93000000000001     0.00000000000000     0.00000000000000
410 1   279.64499999999998     2.71500000000000     0.00000000000000
411 1   278.28749999999997     1.35750000000000     1.35750000000000
412 1   281.00250000000000     4.07250000000000     1.35750000000000
413 1   279.64499999999998     0.00000000000000     2.71500000000000
414 1   276.93000000000001     2.71500000000000     2.71500000000000
415 1   281.00250000000000     1.35750000000000     4.07250000000000
416 1   278.28749999999997     4.07250000000000     4.07250000000000
417 1   282.36000000000001     0.00000000000000     0.00000000000000
418 1   285.07499999999999     2.71500000000000     0.00000000000000
419 1   283.71749999999997     1.35750000000000     1.35750000000000
420 1   286.43250000000000     4.07250000000000     1.35750000000000
421 1   285.07499999999999     0.00000000000000     2.71500000000000
422 1   282.36000000000001     2.71500000000000     2.71500000000000
423 1   286.43250000000000     1.35750000000000     4.07250000000000
424 1   283.71749999999997     4.07250000000000     4.07250000000000
425 1   287.78999999999996     0.00000000000000     0.00000000000000
426 1   290.50500000000000     2.71500000000000     0.00000000000000
427 1   289.14749999999998     1.35750000000000     1.35750000000000
428 1   291.86250000000001     4.07250000000000     1.35750000000000
429 1   290.50500000000000     0.00000000000000     2.71500000000000
430 1   287.78999999999996     2.71500000000000     2.71500000000000
431 1   291.86250000000001     1.35750000000000     4.07250000000000
432 1   289.14749999999998     4.07250000000000     4.07250000000000
433 1   293.21999999999997     0.00000000000000     0.00000000000000