graphene
0 atoms
3  atom types
0.000000 0.000000 xlo xhi
0.000000 0.000000 ylo yhi
0.000000 0.000000 zlo zhi

Atoms

